 <VTKFile type="UnstructuredGrid" version="0.1" byte_order="BigEndian">
 <UnstructuredGrid>
 <Piece NumberOfPoints="        2601 " NumberOfCells="        2500 ">
 <PointData Scalars="scalars">
 <DataArray type="Float32" NumberOfComponents="3" Name="Velocity" Format="ascii">
   0.0000000000000000        0.0000000000000000        0.00000000    
 -0.13412908275272523        0.0000000000000000        0.00000000    
 -0.26747621114067316        0.0000000000000000        0.00000000    
 -0.39899299954997047        0.0000000000000000        0.00000000    
 -0.52804712016152833        0.0000000000000000        0.00000000    
 -0.65320301035469197        0.0000000000000000        0.00000000    
 -0.77386367100397335        0.0000000000000000        0.00000000    
 -0.88808358283969502        0.0000000000000000        0.00000000    
 -0.99519350574257692        0.0000000000000000        0.00000000    
  -1.0926281059937175        0.0000000000000000        0.00000000    
  -1.1795672429442234        0.0000000000000000        0.00000000    
  -1.2527694711659987        0.0000000000000000        0.00000000    
  -1.3112728931617796        0.0000000000000000        0.00000000    
  -1.3512355851200206        0.0000000000000000        0.00000000    
  -1.3717664923901887        0.0000000000000000        0.00000000    
  -1.3687426773496272        0.0000000000000000        0.00000000    
  -1.3419145359862481        0.0000000000000000        0.00000000    
  -1.2875374289619286        0.0000000000000000        0.00000000    
  -1.2069536452577518        0.0000000000000000        0.00000000    
  -1.0977228279667688        0.0000000000000000        0.00000000    
 -0.96363096880901966        0.0000000000000000        0.00000000    
 -0.80429316344932744        0.0000000000000000        0.00000000    
 -0.62576454195608178        0.0000000000000000        0.00000000    
 -0.42979622667879080        0.0000000000000000        0.00000000    
 -0.22334267904115349        0.0000000000000000        0.00000000    
  -9.9598603226520987E-003   0.0000000000000000        0.00000000    
  0.20383387108229908        0.0000000000000000        0.00000000    
  0.41293052343789938        0.0000000000000000        0.00000000    
  0.61184368889074936        0.0000000000000000        0.00000000    
  0.79467318550057975        0.0000000000000000        0.00000000    
  0.95762891135378436        0.0000000000000000        0.00000000    
   1.0957074122378891        0.0000000000000000        0.00000000    
   1.2076984818773790        0.0000000000000000        0.00000000    
   1.2908795913015241        0.0000000000000000        0.00000000    
   1.3467229571186932        0.0000000000000000        0.00000000    
   1.3747507450922194        0.0000000000000000        0.00000000    
   1.3782241673411966        0.0000000000000000        0.00000000    
   1.3579459668868812        0.0000000000000000        0.00000000    
   1.3178385985445371        0.0000000000000000        0.00000000    
   1.2590737217901378        0.0000000000000000        0.00000000    
   1.1854401805434653        0.0000000000000000        0.00000000    
   1.0980010137103680        0.0000000000000000        0.00000000    
   1.0000175884365443        0.0000000000000000        0.00000000    
  0.89231422473065358        0.0000000000000000        0.00000000    
  0.77750623316924472        0.0000000000000000        0.00000000    
  0.65622640136954902        0.0000000000000000        0.00000000    
  0.53047347577771153        0.0000000000000000        0.00000000    
  0.40080165688915725        0.0000000000000000        0.00000000    
  0.26868652249176772        0.0000000000000000        0.00000000    
  0.13473056437072156        0.0000000000000000        0.00000000    
   0.0000000000000000        0.0000000000000000        0.00000000    
   0.0000000000000000       0.13417631056101723        0.00000000    
 -0.13378015942319177       0.13373293161391583        0.00000000    
 -0.26667247882062012       0.13250651617046963        0.00000000    
 -0.39799673422618453       0.13033452764341558        0.00000000    
 -0.52654054424158891       0.12726340298254868        0.00000000    
 -0.65171748235284999       0.12306942532090732        0.00000000    
 -0.77186911517896151       0.11774286815348103        0.00000000    
 -0.88639147554932884       0.11099940405164760        0.00000000    
 -0.99306001722688086       0.10277906052777416        0.00000000    
  -1.0911540875353394        9.2749610030874244E-002   0.00000000    
  -1.1777887346730074        8.0824174056279965E-002   0.00000000    
  -1.2520743949718327        6.6663714463380083E-002   0.00000000    
  -1.3104535657086049        5.0218878268145355E-002   0.00000000    
  -1.3519438596796145        3.1234107660175717E-002   0.00000000    
  -1.3724822494708933        9.8351894002331117E-003   0.00000000    
  -1.3713421412872269       -1.3999112625378521E-002   0.00000000    
  -1.3444192812605762       -3.9751888765699045E-002   0.00000000    
  -1.2920171308177533       -6.7027368702350126E-002   0.00000000    
  -1.2108121293353298       -9.4761416485312736E-002   0.00000000    
  -1.1032170296074528      -0.12206450053444533        0.00000000    
 -0.96766178082706278      -0.14758260740477031        0.00000000    
 -0.80924069468167015      -0.17017628410120941        0.00000000    
 -0.62864452634281554      -0.18894850573198191        0.00000000    
 -0.43276097865310320      -0.20290335723591413        0.00000000    
 -0.22429190351881692      -0.21201926553711151        0.00000000    
  -1.0198805328679613E-002 -0.21545665137241918        0.00000000    
  0.20511234677082540      -0.21364823213313891        0.00000000    
  0.41554207659875220      -0.20587815005127905        0.00000000    
  0.61527476341467491      -0.19276770221858730        0.00000000    
  0.79948990974623690      -0.17427694072369759        0.00000000    
  0.96232363094884255      -0.15151250633319233        0.00000000    
   1.1011803879460451      -0.12542275154900737        0.00000000    
   1.2120810425048454       -9.7468972650348068E-002   0.00000000    
   1.2953242151714963       -6.8955309441346840E-002   0.00000000    
   1.3495057347675723       -4.1069575972950439E-002   0.00000000    
   1.3772712724129246       -1.4723749646837720E-002   0.00000000    
   1.3790214378766670        9.5001619330767062E-003   0.00000000    
   1.3585564241166022        3.1243052280381867E-002   0.00000000    
   1.3169931410644746        5.0427599113056831E-002   0.00000000    
   1.2582894124900121        6.7041006214871635E-002   0.00000000    
   1.1835933063653177        8.1288641155470687E-002   0.00000000    
   1.0964584369345602        9.3285395107440369E-002   0.00000000    
  0.99780956045944946       0.10334690664047731        0.00000000    
  0.89057488121996475       0.11159113630394331        0.00000000    
  0.77544826554327262       0.11834347093314862        0.00000000    
  0.65471128451031979       0.12367334189853565        0.00000000    
  0.52892223254696957       0.12786863565565029        0.00000000    
  0.39978945556247353       0.13093596021642839        0.00000000    
  0.26785993813488623       0.13310869160755368        0.00000000    
  0.13437664190885734       0.13433056273854091        0.00000000    
   0.0000000000000000       0.13477664354005017        0.00000000    
   0.0000000000000000       0.26752577441156189        0.00000000    
 -0.13260552283506025       0.26676915002062374        0.00000000    
 -0.26447741811246978       0.26423451243762147        0.00000000    
 -0.39461929464430945       0.26007266331264756        0.00000000    
 -0.52245052722712115       0.25390030991057611        0.00000000    
 -0.64659710442278295       0.24575603369876103        0.00000000    
 -0.76652291614142154       0.23513370431944444        0.00000000    
 -0.88035537735557690       0.22196338946914232        0.00000000    
 -0.98749573465976748       0.20562397409111416        0.00000000    
  -1.0854554270454204       0.18595845916055684        0.00000000    
  -1.1734806812316949       0.16227522624965854        0.00000000    
  -1.2483855904550818       0.13440323179109909        0.00000000    
  -1.3092273908806389       0.10170033210190536        0.00000000    
  -1.3521487347929482        6.4164291708590671E-002   0.00000000    
  -1.3761437793932989        2.1438439742629080E-002   0.00000000    
  -1.3769328921390229       -2.5953358406891232E-002   0.00000000    
  -1.3539211482781053       -7.7732246872538602E-002   0.00000000    
  -1.3030031474058743      -0.13236716191177331        0.00000000    
  -1.2250341215788347      -0.18859565058610445        0.00000000    
  -1.1170903926689308      -0.24376909507267874        0.00000000    
 -0.98282407054026188      -0.29569958377631961        0.00000000    
 -0.82156841991569440      -0.34173604450090317        0.00000000    
 -0.63996085535966540      -0.37959247822787484        0.00000000    
 -0.43976475172413731      -0.40833903606657240        0.00000000    
 -0.22862556004056553      -0.42619185352500477        0.00000000    
  -1.0151714581584776E-002 -0.43385100703496804        0.00000000    
  0.20890522545098192      -0.42962196860335106        0.00000000    
  0.42308772770015540      -0.41451664565948404        0.00000000    
  0.62669432624083488      -0.38746849196767946        0.00000000    
  0.81302316331910296      -0.35012013438573097        0.00000000    
  0.97804299959515006      -0.30352287015052087        0.00000000    
   1.1162842265299568      -0.25051037166494738        0.00000000    
   1.2267693046019623      -0.19376708516594665        0.00000000    
   1.3070457784752412      -0.13617684346690312        0.00000000    
   1.3591443388386319       -8.0128121907624347E-002   0.00000000    
   1.3830833786382688       -2.7369781158343917E-002   0.00000000    
   1.3825644672947086        2.0914939323602662E-002   0.00000000    
   1.3586756041924559        6.4182151751013508E-002   0.00000000    
   1.3155440234285687       0.10218336345760863        0.00000000    
   1.2543941124781943       0.13513888139402605        0.00000000    
   1.1790588376335895       0.16322214694475287        0.00000000    
   1.0905383226267691       0.18700727375463350        0.00000000    
  0.99205822026127710       0.20675400683299411        0.00000000    
  0.88434982428612774       0.22312711132498186        0.00000000    
  0.76996540318883389       0.23631853268517714        0.00000000    
  0.64945210211284576       0.24694856225439332        0.00000000    
  0.52474465735199949       0.25508991202304537        0.00000000    
  0.39632835381441933       0.26126376437007864        0.00000000    
  0.26562243753906012       0.26541632115588321        0.00000000    
  0.13317415137889993       0.26795451557538991        0.00000000    
   0.0000000000000000       0.26870348398996940        0.00000000    
   0.0000000000000000       0.39943842064839674        0.00000000    
 -0.13069434767814547       0.39815637429600087        0.00000000    
 -0.26059637366048150       0.39462120942096152        0.00000000    
 -0.38912093877874826       0.38835240797845544        0.00000000    
 -0.51516521472727561       0.37949607377504352        0.00000000    
 -0.63825120702212013       0.36739283932387845        0.00000000    
 -0.75685326480016724       0.35202476818991207        0.00000000    
 -0.87049794517292667       0.33254946718470668        0.00000000    
 -0.97711424262196911       0.30879455112764281        0.00000000    
  -1.0761267368307350       0.27976006871760728        0.00000000    
  -1.1647973208340208       0.24516945488098493        0.00000000    
  -1.2423500814833934       0.20396667303174104        0.00000000    
  -1.3052975591242579       0.15592616892645553        0.00000000    
  -1.3526183010296555       0.10018054070100713        0.00000000    
  -1.3801219360742241        3.6920870393851397E-002   0.00000000    
  -1.3866766199795637       -3.4091992407733591E-002   0.00000000    
  -1.3677086755044896      -0.11157330120902324        0.00000000    
  -1.3225945907796552      -0.19455819317298062        0.00000000    
  -1.2471047892545439      -0.27986344667844176        0.00000000    
  -1.1427056230120314      -0.36484419413332975        0.00000000    
  -1.0068528476539622      -0.44474358220386040        0.00000000    
 -0.84503851877823344      -0.51576202557418693        0.00000000    
 -0.65768581687873517      -0.57452676361162647        0.00000000    
 -0.45341529561115979      -0.61787137558642224        0.00000000    
 -0.23505582191395955      -0.64615817938747211        0.00000000    
  -1.0546734849568896E-002 -0.65686761369635804        0.00000000    
  0.21547658055192087      -0.65168561737756747        0.00000000    
  0.43668514812259451      -0.62784406670560400        0.00000000    
  0.64586258907496552      -0.58692511041613349        0.00000000    
  0.83751146126675835      -0.52864122520784862        0.00000000    
   1.0041146947216455      -0.45662484906081297        0.00000000    
   1.1430323854503706      -0.37456731041873226        0.00000000    
   1.2502734122011661      -0.28743625123638289        0.00000000    
   1.3271949738005318      -0.19970571286970634        0.00000000    
   1.3734607414357072      -0.11496358050474927        0.00000000    
   1.3928094228791090       -3.5822043804908131E-002   0.00000000    
   1.3864671423913659        3.6228393800161122E-002   0.00000000    
   1.3588287368133860       0.10039596595397918        0.00000000    
   1.3112780235962347       0.15665184323442524        0.00000000    
   1.2479706642628547       0.20512767190020048        0.00000000    
   1.1699877663030240       0.24655152924180573        0.00000000    
   1.0808604300708695       0.28132574269574406        0.00000000    
  0.98133296408490434       0.31044310624217641        0.00000000    
  0.87422000026459479       0.33425937171039988        0.00000000    
  0.76003125077093026       0.35375944288959438        0.00000000    
  0.64091691382939098       0.36913529006660345        0.00000000    
  0.51728333423890527       0.38124420856108265        0.00000000    
  0.39071973866147752       0.39008936694611218        0.00000000    
  0.26165404313964674       0.39636233037599183        0.00000000    
  0.13122687092051527       0.39988396473359744        0.00000000    
   0.0000000000000000       0.40117505713016544        0.00000000    
   0.0000000000000000       0.52879893692906843        0.00000000    
 -0.12788651878705015       0.52737672447950201        0.00000000    
 -0.25517187761088073       0.52258824404265247        0.00000000    
 -0.38100375839096146       0.51474181925404061        0.00000000    
 -0.50494376764556326       0.50309094770166329        0.00000000    
 -0.62579208316113810       0.48773227320655638        0.00000000    
 -0.74318392122121324       0.46767923014448426        0.00000000    
 -0.85546006196022417       0.44281582634072947        0.00000000    
 -0.96223031200376041       0.41191473946338342        0.00000000    
  -1.0612446008020815       0.37466666338772114        0.00000000    
  -1.1519706894806974       0.32965953289201949        0.00000000    
  -1.2314249475161474       0.27648361370423391        0.00000000    
  -1.2987997110670475       0.21373146944504332        0.00000000    
  -1.3502685427173027       0.14116481373670817        0.00000000    
  -1.3846345136071556        5.7806203291963835E-002   0.00000000    
  -1.3972743893535808       -3.5782765655519383E-002   0.00000000    
  -1.3866786343817117      -0.13944622740870760        0.00000000    
  -1.3478218875345997      -0.25065609854676030        0.00000000    
  -1.2797420034654070      -0.36733522689941150        0.00000000    
  -1.1778328205268840      -0.48368076309499708        0.00000000    
  -1.0445565723139572      -0.59503603681355866        0.00000000    
 -0.87782347240892700      -0.69401699974693254        0.00000000    
 -0.68637149972777389      -0.77507646401984587        0.00000000    
 -0.47208439331655483      -0.83587930285875078        0.00000000    
 -0.24561791542951888      -0.87297620369966500        0.00000000    
  -1.0699087252839181E-002 -0.88947750462702280        0.00000000    
  0.22556586306992374      -0.88136399217143291        0.00000000    
  0.45654826902491685      -0.85035666543917576        0.00000000    
  0.67578064739882227      -0.79282233100913235        0.00000000    
  0.87318203270968342      -0.71179426211921848        0.00000000    
   1.0436925911454933      -0.61058560404047635        0.00000000    
   1.1805317040976897      -0.49636335912162621        0.00000000    
   1.2840540951347812      -0.37640362032177788        0.00000000    
   1.3534073410753391      -0.25701315132579200        0.00000000    
   1.3926178959653677      -0.14313246457434783        0.00000000    
   1.4033911503262830       -3.7775095541104427E-002   0.00000000    
   1.3905984263053768        5.7316450044444460E-002   0.00000000    
   1.3560100998447813       0.14153464174686736        0.00000000    
   1.3042252913272288       0.21484868917559935        0.00000000    
   1.2364695934493646       0.27799388316893781        0.00000000    
   1.1566306554677379       0.33150715391381202        0.00000000    
   1.0654517051855710       0.37667640453679185        0.00000000    
  0.96601654961830086       0.41405506595358482        0.00000000    
  0.85876274882263048       0.44501417661376341        0.00000000    
  0.74604480106332804       0.46991133523835749        0.00000000    
  0.62816051747205115       0.48998201824950444        0.00000000    
  0.50685702752398876       0.50533454991583371        0.00000000    
  0.38242674900706691       0.51699289968461248        0.00000000    
  0.25612955299690865       0.52482168916853256        0.00000000    
  0.12836099956285832       0.52962033159319011        0.00000000    
   0.0000000000000000       0.53102656075294785        0.00000000    
   0.0000000000000000       0.65514701483602333        0.00000000    
 -0.12424328762524170       0.65315845298383501        0.00000000    
 -0.24786124531931014       0.64770983205515364        0.00000000    
 -0.37043368879157024       0.63802455549293902        0.00000000    
 -0.49105410080700274       0.62436863273167065        0.00000000    
 -0.60943581905312083       0.60568462193736494        0.00000000    
 -0.72430037152429250       0.58198327194372801        0.00000000    
 -0.83541601434369428       0.55190356809909069        0.00000000    
 -0.94101551372772485       0.51519674713132402        0.00000000    
  -1.0408209250637206       0.47020435585336556        0.00000000    
  -1.1324217428729355       0.41644874691286315        0.00000000    
  -1.2153478342569293       0.35207474910218622        0.00000000    
  -1.2863531360690150       0.27652039940864992        0.00000000    
  -1.3445586718006719       0.18805025115445870        0.00000000    
  -1.3857099947013132        8.6438059663188391E-002   0.00000000    
  -1.4082359134965046       -2.9248827485579609E-002   0.00000000    
  -1.4069172707804487      -0.15789456326819096        0.00000000    
  -1.3793792852737217      -0.29860249504145930        0.00000000    
  -1.3199586392330009      -0.44688936051635070        0.00000000    
  -1.2268004238690557      -0.59919402778076092        0.00000000    
  -1.0943224254168524      -0.74527701879475905        0.00000000    
 -0.92736496582999672      -0.87746657725776156        0.00000000    
 -0.72466804169626742      -0.98577578332584181        0.00000000    
 -0.50073725355050946       -1.0633978781098179        0.00000000    
 -0.25928390193961465       -1.1133774579485529        0.00000000    
  -1.0959048969228219E-002  -1.1323199315252672        0.00000000    
  0.23954134431022520       -1.1252869088774400        0.00000000    
  0.48640298847615177       -1.0842777988541594        0.00000000    
  0.71776834939929968       -1.0094989368931755        0.00000000    
  0.92535883053990220      -0.90010952268675071        0.00000000    
   1.0971120768053926      -0.76453414817612142        0.00000000    
   1.2313157816740776      -0.61345763280704646        0.00000000    
   1.3258175245042121      -0.45733348050535599        0.00000000    
   1.3854156819509693      -0.30503469452981335        0.00000000    
   1.4128828421218997      -0.16178863643295666        0.00000000    
   1.4138800859082068       -3.0889421830110151E-002   0.00000000    
   1.3910210193749286        8.6082566886062806E-002   0.00000000    
   1.3495466484107728       0.18883122232950147        0.00000000    
   1.2909729297250669       0.27791063579474479        0.00000000    
   1.2196555046702782       0.35400505948185018        0.00000000    
   1.1363396759133277       0.41865074433808680        0.00000000    
   1.0444132658490957       0.47263817445823275        0.00000000    
  0.94419970314954993       0.51774201429765010        0.00000000    
  0.83825227036262684       0.55452846185152749        0.00000000    
  0.72671713631153301       0.58465013180975456        0.00000000    
  0.61148291606565019       0.60836172551442946        0.00000000    
  0.49267805019246919       0.62706319847098635        0.00000000    
  0.37166977785677902       0.64070280198116714        0.00000000    
  0.24867679999517134       0.65040196074264423        0.00000000    
  0.12465654387505980       0.65582886957226860        0.00000000    
   0.0000000000000000       0.65783556621075179        0.00000000    
   0.0000000000000000       0.77703720585289426        0.00000000    
 -0.11959561680289450       0.77510716639405386        0.00000000    
 -0.23877096869982251       0.76855442823495967        0.00000000    
 -0.35687543698182306       0.75785687106627253        0.00000000    
 -0.47366522861476384       0.74194652080581525        0.00000000    
 -0.58819457343887893       0.72101779693225432        0.00000000    
 -0.70034217604365312       0.69366225202396992        0.00000000    
 -0.80877890040084521       0.65977695519416046        0.00000000    
 -0.91343674852621726       0.61758070754492933        0.00000000    
  -1.0124726736218381       0.56666173187000590        0.00000000    
  -1.1057607083164971       0.50488022339946537        0.00000000    
  -1.1907438312765775       0.43155248695818910        0.00000000    
  -1.2670360713450048       0.34434020343263655        0.00000000    
  -1.3310806382272413       0.24248054974278696        0.00000000    
  -1.3818604290172469       0.12393887476510224        0.00000000    
  -1.4145425126121658       -1.1541640199078041E-002   0.00000000    
  -1.4268430921054709      -0.16461981377771656        0.00000000    
  -1.4127771060369045      -0.33348121610904818        0.00000000    
  -1.3681744453127134      -0.51603394621380538        0.00000000    
  -1.2867428052335479      -0.70463929752837273        0.00000000    
  -1.1646115808547384      -0.89444097187815397        0.00000000    
 -0.99322402970334844       -1.0666476349147103        0.00000000    
 -0.78432655870891965       -1.2081891207969446        0.00000000    
 -0.53902940049008441       -1.3102124870055427        0.00000000    
 -0.27965395990006731       -1.3673916412535942        0.00000000    
  -1.1305442482406875E-002  -1.3949791186105842        0.00000000    
  0.26140033476028662       -1.3858338923141162        0.00000000    
  0.52887238496297362       -1.3380645097883652        0.00000000    
  0.78099189413842429       -1.2391970960574343        0.00000000    
  0.99692851073219924       -1.0939384612590168        0.00000000    
   1.1697011967536206      -0.91523114189070454        0.00000000    
   1.2933444006887094      -0.72060754789824821        0.00000000    
   1.3747549015438978      -0.52609580909953524        0.00000000    
   1.4187336692988952      -0.33984929113927548        0.00000000    
   1.4320960578826369      -0.16780358857836328        0.00000000    
   1.4191919131719273       -1.2967568762062748E-002   0.00000000    
   1.3861238798599433       0.12408781366294501        0.00000000    
   1.3349464632501711       0.24347776312490482        0.00000000    
   1.2706670871327868       0.34611718980197331        0.00000000    
   1.1940478151373646       0.43373520252330205        0.00000000    
   1.1088577162369846       0.50742652895339424        0.00000000    
   1.0152516163852690       0.56939489975744606        0.00000000    
  0.91598819148030053       0.62046227660227715        0.00000000    
  0.81100225344851895       0.66274157036427161        0.00000000    
  0.70230527999551895       0.69666913080033888        0.00000000    
  0.58981881490397503       0.72406341186002543        0.00000000    
  0.47499845307949257       0.74498673982220320        0.00000000    
  0.35786471001805037       0.76092127602591952        0.00000000    
  0.23944494343655967       0.77159623114005882        0.00000000    
  0.11992782494427379       0.77817197378616509        0.00000000    
   0.0000000000000000       0.78007683081517987        0.00000000    
   0.0000000000000000       0.89412743641791248        0.00000000    
 -0.11400160610534489       0.89161415873626071        0.00000000    
 -0.22757215894577837       0.88479334062901305        0.00000000    
 -0.34047926813157797       0.87262953613909222        0.00000000    
 -0.45205511533846465       0.85553949457163270        0.00000000    
 -0.56223487724249699       0.83213392989374768        0.00000000    
 -0.67005855446527374       0.80251739888874418        0.00000000    
 -0.77559364875086179       0.76489362697142782        0.00000000    
 -0.87749836148792926       0.71902659662871793        0.00000000    
 -0.97591259831367794       0.66266600470695558        0.00000000    
  -1.0689563365026435       0.59520772344464523        0.00000000    
  -1.1567136039571191       0.51396537732705250        0.00000000    
  -1.2364870522307936       0.41799300140425827        0.00000000    
  -1.3080186782713703       0.30440394469360027        0.00000000    
  -1.3673462316748257       0.17212282400599926        0.00000000    
  -1.4132528460235467        1.8863108503437025E-002   0.00000000    
  -1.4401068320082642      -0.15586999700410564        0.00000000    
  -1.4443831875080340      -0.35202066345151622        0.00000000    
  -1.4193672699269384      -0.56711307717867476        0.00000000    
  -1.3571976145368698      -0.79716146203261939        0.00000000    
  -1.2521089553437761       -1.0291386909480253        0.00000000    
  -1.0955666057361939       -1.2598798166035248        0.00000000    
 -0.86831902173862907       -1.4511019941025247        0.00000000    
 -0.60335658560467953       -1.5775592080523786        0.00000000    
 -0.31035872015338895       -1.6524182262506477        0.00000000    
  -8.7991534005002689E-003  -1.6798606177837090        0.00000000    
  0.29486525032139804       -1.6773225741081954        0.00000000    
  0.59941101299958766       -1.6185936408747861        0.00000000    
  0.87531173556235053       -1.4866881967116823        0.00000000    
   1.1005871643395446       -1.2876594059754052        0.00000000    
   1.2592098385603061       -1.0529055574187722        0.00000000    
   1.3648038554200543      -0.81217035316481456        0.00000000    
   1.4253678862760046      -0.57650753554623335        0.00000000    
   1.4489858250807479      -0.35703427125228698        0.00000000    
   1.4436576996192634      -0.15865287158958602        0.00000000    
   1.4163497210950542        1.8093837483939539E-002   0.00000000    
   1.3700102739069153       0.17243388791523626        0.00000000    
   1.3105647245884882       0.30575465480051411        0.00000000    
   1.2387845909934505       0.41989980783709552        0.00000000    
   1.1589620764841115       0.51639437099250118        0.00000000    
   1.0709974266477416       0.59792210921938171        0.00000000    
  0.97788049144567246       0.66562235454467877        0.00000000    
  0.87925040908341667       0.72212832908082181        0.00000000    
  0.77722259025833096       0.76808927474191635        0.00000000    
  0.67145142333759111       0.80578956679509239        0.00000000    
  0.56345518224799140       0.83542568204563417        0.00000000    
  0.45302285092067807       0.85887716278714776        0.00000000    
  0.34123467811599256       0.87595276892622664        0.00000000    
  0.22806789073931785       0.88815129219676792        0.00000000    
  0.11425729467971847       0.89494462728037216        0.00000000    
   0.0000000000000000       0.89748929694390589        0.00000000    
   0.0000000000000000        1.0046600186420018        0.00000000    
 -0.10731919865849888        1.0024023812749452        0.00000000    
 -0.21439542316137500       0.99465189543266641        0.00000000    
 -0.32078592151833163       0.98206858887702619        0.00000000    
 -0.42643486978913697       0.96332523731052089        0.00000000    
 -0.53067503538971816       0.93876811465820131        0.00000000    
 -0.63363023192933987       0.90666208788592573        0.00000000    
 -0.73436125167913113       0.86701505200824347        0.00000000    
 -0.83315801188660954       0.81760664453579990        0.00000000    
 -0.92871464662102510       0.75805682835853627        0.00000000    
  -1.0214408631231380       0.68558685448362267        0.00000000    
  -1.1094669057794990       0.59936955639727640        0.00000000    
  -1.1931792380543347       0.49607460288216781        0.00000000    
  -1.2697346418486832       0.37440937304883293        0.00000000    
  -1.3391146295613916       0.23082493676671903        0.00000000    
  -1.3967685402236594        6.3721520751759617E-002   0.00000000    