 <VTKFile type="UnstructuredGrid" version="0.1" byte_order="BigEndian">
 <UnstructuredGrid>
 <Piece NumberOfPoints="        2601 " NumberOfCells="        2500 ">
 <PointData Scalars="scalars">
 <DataArray type="Float32" NumberOfComponents="3" Name="Velocity" Format="ascii">
   0.0000000000000000        0.0000000000000000        0.00000000    
 -0.15239881402572283        0.0000000000000000        0.00000000    
 -0.30486565642745894        0.0000000000000000        0.00000000    
 -0.45718320787338207        0.0000000000000000        0.00000000    
 -0.60959408091617973        0.0000000000000000        0.00000000    
 -0.76146862641882651        0.0000000000000000        0.00000000    
 -0.91308816842413221        0.0000000000000000        0.00000000    
  -1.0632276922651962        0.0000000000000000        0.00000000    
  -1.2119904280549294        0.0000000000000000        0.00000000    
  -1.3572689017372506        0.0000000000000000        0.00000000    
  -1.4986061719239858        0.0000000000000000        0.00000000    
  -1.6325667503995915        0.0000000000000000        0.00000000    
  -1.7574716528385899        0.0000000000000000        0.00000000    
  -1.8679527597824863        0.0000000000000000        0.00000000    
  -1.9600959097183550        0.0000000000000000        0.00000000    
  -2.0261840912870031        0.0000000000000000        0.00000000    
  -2.0588707030456419        0.0000000000000000        0.00000000    
  -2.0491215775532305        0.0000000000000000        0.00000000    
  -1.9854633533594257        0.0000000000000000        0.00000000    
  -1.8624804383725431        0.0000000000000000        0.00000000    
  -1.6665153885296748        0.0000000000000000        0.00000000    
  -1.3960977241016246        0.0000000000000000        0.00000000    
  -1.0727482478580803        0.0000000000000000        0.00000000    
 -0.69967099159128154        0.0000000000000000        0.00000000    
 -0.34063715392553146        0.0000000000000000        0.00000000    
   3.0352482229009325E-002   0.0000000000000000        0.00000000    
  0.38715674119235488        0.0000000000000000        0.00000000    
  0.74907270725696373        0.0000000000000000        0.00000000    
   1.1089631243126374        0.0000000000000000        0.00000000    
   1.4234896276714766        0.0000000000000000        0.00000000    
   1.6838533282830748        0.0000000000000000        0.00000000    
   1.8667225425804184        0.0000000000000000        0.00000000    
   1.9809194276192894        0.0000000000000000        0.00000000    
   2.0359024470720879        0.0000000000000000        0.00000000    
   2.0420954480291655        0.0000000000000000        0.00000000    
   2.0070101865595920        0.0000000000000000        0.00000000    
   1.9420743630811419        0.0000000000000000        0.00000000    
   1.8510258838003715        0.0000000000000000        0.00000000    
   1.7434206703858699        0.0000000000000000        0.00000000    
   1.6204600157313556        0.0000000000000000        0.00000000    
   1.4892600561143809        0.0000000000000000        0.00000000    
   1.3495452929240233        0.0000000000000000        0.00000000    
   1.2063320514292213        0.0000000000000000        0.00000000    
   1.0586546140224549        0.0000000000000000        0.00000000    
  0.90989922642455101        0.0000000000000000        0.00000000    
  0.75894382680662742        0.0000000000000000        0.00000000    
  0.60794519353531129        0.0000000000000000        0.00000000    
  0.45594958392689883        0.0000000000000000        0.00000000    
  0.30417724009104918        0.0000000000000000        0.00000000    
  0.15203260488852952        0.0000000000000000        0.00000000    
   0.0000000000000000        0.0000000000000000        0.00000000    
   0.0000000000000000       0.15188711037707492        0.00000000    
 -0.15134747482860020       0.15185917847559288        0.00000000    
 -0.30263044751869239       0.15189063661456112        0.00000000    
 -0.45401482418849398       0.15181129149952979        0.00000000    
 -0.60509544331789755       0.15168020067097884        0.00000000    
 -0.75615596221623038       0.15125486372839067        0.00000000    
 -0.90630592687700373       0.15051464293597749        0.00000000    
  -1.0557877942240752       0.14910674825057749        0.00000000    
  -1.2030064562109410       0.14687464952429125        0.00000000    
  -1.3478938979697728       0.14329126591531888        0.00000000    
  -1.4878064094711365       0.13795851577102827        0.00000000    
  -1.6218904327213639       0.13008608595331064        0.00000000    
  -1.7459405145171984       0.11886889827974524        0.00000000    
  -1.8575247918864684       0.10319648603199202        0.00000000    
  -1.9502680226869997        8.1689894702600421E-002   0.00000000    
  -2.0190581469660152        5.3188411143717779E-002   0.00000000    
  -2.0553095132991550        1.5749566946213260E-002   0.00000000    
  -2.0501718771689741       -3.0636328570045907E-002   0.00000000    
  -1.9952148333636128       -8.7978939431036671E-002   0.00000000    
  -1.8777178371291972      -0.15250097179139840        0.00000000    
  -1.6968625950186786      -0.22431932016404693        0.00000000    
  -1.4400559903171957      -0.30290494896656106        0.00000000    
  -1.1060610799275548      -0.35443943766898800        0.00000000    
 -0.74346514786451390      -0.38123375066198373        0.00000000    
 -0.34469555810549624      -0.37656967676558667        0.00000000    
   2.4910631765565988E-002 -0.36402614926128757        0.00000000    
  0.40514130266068582      -0.37300878060010917        0.00000000    
  0.78630904712114658      -0.37007492992621188        0.00000000    
   1.1437922330481360      -0.34729867305900020        0.00000000    
   1.4679835861597195      -0.29141918341252193        0.00000000    
   1.7113894036272455      -0.21235033466873252        0.00000000    
   1.8822241629833241      -0.14135363898574352        0.00000000    
   1.9881277041386363       -7.8746787210370719E-002   0.00000000    
   2.0368015968583286       -2.4910124963260775E-002   0.00000000    
   2.0371059518355144        1.8412769027157435E-002   0.00000000    
   2.0004614046061970        5.3317039670478246E-002   0.00000000    
   1.9317555636306241        8.0324624781744597E-002   0.00000000    
   1.8415338025298591       0.10094561559843029        0.00000000    
   1.7317857669895316       0.11640763335462341        0.00000000    
   1.6106886254382939       0.12765016284968428        0.00000000    
   1.4784132396958887       0.13582518250793754        0.00000000    
   1.3408736261762475       0.14142919420055464        0.00000000    
   1.1972746550231990       0.14538301844555648        0.00000000    
   1.0517060350278566       0.14786303895499622        0.00000000    
  0.90303052942691242       0.14956785424213001        0.00000000    
  0.75394686357996565       0.15047121122114801        0.00000000    
  0.60337366609910770       0.15110061952932197        0.00000000    
  0.45295625996163152       0.15131239621494702        0.00000000    
  0.30190125506708099       0.15151495251376748        0.00000000    
  0.15103725894841741       0.15149367880577019        0.00000000    
   0.0000000000000000       0.15157618502951020        0.00000000    
   0.0000000000000000       0.30155657722237672        0.00000000    
 -0.14808709762471167       0.30162428408191988        0.00000000    
 -0.29622441130382016       0.30154581737580999        0.00000000    
 -0.44418410595168445       0.30150018205420637        0.00000000    
 -0.59219920197430809       0.30108702526676717        0.00000000    
 -0.73965260639246277       0.30036196244728863        0.00000000    
 -0.88684901345720790       0.29875391594110662        0.00000000    
  -1.0326242304443016       0.29612455957774492        0.00000000    
  -1.1771854936376154       0.29163676337589711        0.00000000    
  -1.3185807521088115       0.28481185229179501        0.00000000    
  -1.4566292174009645       0.27439890618676699        0.00000000    
  -1.5882231678154715       0.25932366920026612        0.00000000    
  -1.7122884995806751       0.23774672859266202        0.00000000    
  -1.8240285647306589       0.20764299823617069        0.00000000    
  -1.9206486772519484       0.16660672581925470        0.00000000    
  -1.9950376155248231       0.11145064257664264        0.00000000    
  -2.0416758730642370        4.0376959385085537E-002   0.00000000    
  -2.0514728330265966       -5.0604397179248306E-002   0.00000000    
  -2.0154282359646642      -0.15901251168959149        0.00000000    
  -1.9262325422144282      -0.28816008952029010        0.00000000    
  -1.7705736672878358      -0.42517431947239132        0.00000000    
  -1.5622134554463298      -0.56721676620445727        0.00000000    
  -1.2642269336246945      -0.72210905264212677        0.00000000    
 -0.85762574221047538      -0.78276125917012351        0.00000000    
 -0.43271466928252456      -0.79872283094403795        0.00000000    
   4.1646721107716111E-002 -0.78584057534893859        0.00000000    
  0.48472470765158077      -0.77450301195118976        0.00000000    
  0.90554448525044717      -0.77056822063887842        0.00000000    
   1.3017316465847126      -0.70047572960738480        0.00000000    
   1.5846687016822278      -0.54537053507668409        0.00000000    
   1.7840715946824164      -0.40120769347221041        0.00000000    
   1.9251154702622695      -0.26437491512114042        0.00000000    
   2.0050147020232560      -0.14152828399151587        0.00000000    
   2.0341585962140183       -3.9946415095175172E-002   0.00000000    
   2.0227820542746136        4.4521246120726908E-002   0.00000000    
   1.9754894743869411       0.11114568969152001        0.00000000    
   1.9034262656530045       0.16326502446937866        0.00000000    
   1.8086142611721265       0.20303898149021848        0.00000000    
   1.6999879890116416       0.23268857516260086        0.00000000    
   1.5778283702301732       0.25462598137231512        0.00000000    
   1.4487983064081602       0.27015481354851301        0.00000000    
   1.3121244575478686       0.28131302553791476        0.00000000    
   1.1725436991807527       0.28867891662702277        0.00000000    
   1.0288480301172265       0.29383142983048360        0.00000000    
  0.88426566543233132       0.29685733365104394        0.00000000    
  0.73758228571878837       0.29894877737088088        0.00000000    
  0.59087692697354477       0.29990160960416984        0.00000000    
  0.44317776842306145       0.30062797082628284        0.00000000    
  0.29567687423881139       0.30075527697964105        0.00000000    
  0.14778932700232017       0.30100489769333594        0.00000000    
   0.0000000000000000       0.30089155209102730        0.00000000    
   0.0000000000000000       0.44708951486124421        0.00000000    
 -0.14280996745177305       0.44698841151788321        0.00000000    
 -0.28552126602130612       0.44703030218673917        0.00000000    
 -0.42826442626517652       0.44671855213345601        0.00000000    
 -0.57062772290672081       0.44624704784983799        0.00000000    
 -0.71289229597143178       0.44491991734563452        0.00000000    
 -0.85422338330871650       0.44272345544283648        0.00000000    
 -0.99495562641875002       0.43866248017181686        0.00000000    
  -1.1336731327689820       0.43237761232329447        0.00000000    
  -1.2706158287101075       0.42240895775554338        0.00000000    
  -1.4035544044129269       0.40778884171576585        0.00000000    
  -1.5323845380114738       0.38635781768333205        0.00000000    
  -1.6537201377725999       0.35611351163351684        0.00000000    
  -1.7666784575716568       0.31397460014360934        0.00000000    
  -1.8661706450270463       0.25638742388585306        0.00000000    
  -1.9497666231451509       0.17965486090059490        0.00000000    
  -2.0097177626794531        7.8762138131907661E-002   0.00000000    
  -2.0414824880522433       -4.7427890590929528E-002   0.00000000    
  -2.0353468915543966      -0.20436921184101989        0.00000000    
  -1.9843035904384196      -0.38304238423454112        0.00000000    
  -1.8828601837968475      -0.58739430633017142        0.00000000    
  -1.7143331757117199      -0.78188399927214070        0.00000000    
  -1.5323583980593185      -0.98740311905319222        0.00000000    
  -1.2521726639290436       -1.2042541183015489        0.00000000    
 -0.77778706017874888       -1.2765266484970617        0.00000000    
   4.6221188905843293E-002  -1.6064063972688269        0.00000000    
  0.86581042301717981       -1.2166044106937692        0.00000000    
   1.2900455300116902       -1.1735217064880579        0.00000000    
   1.5557975342537751      -0.95946140933948898        0.00000000    
   1.7368772532685079      -0.75040162945528843        0.00000000    
   1.8873511912751126      -0.54605343010456275        0.00000000    
   1.9749099636985206      -0.34813182649114333        0.00000000    
   2.0172849970440412      -0.18004563773156684        0.00000000    
   2.0211263417359548       -3.4414300237486477E-002   0.00000000    
   1.9884771325612589        8.3014882374038021E-002   0.00000000    
   1.9312273984409081       0.17719436744606035        0.00000000    
   1.8499819424626183       0.25052501142429001        0.00000000    
   1.7540712574672697       0.30650168401098393        0.00000000    
   1.6432295185031882       0.34869388376387445        0.00000000    
   1.5246068419276999       0.37940296812716190        0.00000000    
   1.3971233828567420       0.40189134968430856        0.00000000    
   1.2660321946297843       0.41734152648831196        0.00000000    
   1.1298860392214680       0.42837732944989132        0.00000000    
  0.99237932149936636       0.43533540379201124        0.00000000    
  0.85209915999455055       0.44021588587719684        0.00000000    
  0.71153422445971770       0.44283854039172932        0.00000000    
  0.56952629745829741       0.44472513232807276        0.00000000    
  0.42762942081577515       0.44540048329389242        0.00000000    
  0.28505985014139873       0.44605322936885206        0.00000000    
  0.14262700189656105       0.44602734078385120        0.00000000    
   0.0000000000000000       0.44628543789768865        0.00000000    
   0.0000000000000000       0.58614707883147177        0.00000000    
 -0.13550088337375771       0.58624169837146634        0.00000000    
 -0.27098918355365276       0.58597661408099633        0.00000000    
 -0.40619528300555419       0.58572149993311806        0.00000000    
 -0.54130400976555382       0.58471612345027102        0.00000000    
 -0.67571338156155214       0.58312478660391642        0.00000000    
 -0.80975131029249647       0.57988760225149072        0.00000000    
 -0.94238197042646588       0.57486123660501132        0.00000000    
  -1.0740167595484051       0.56653115136116083        0.00000000    
  -1.2030484994352981       0.55422985454335316        0.00000000    
  -1.3298945567993290       0.53575257799391929        0.00000000    
  -1.4521921829264401       0.50952184112826482        0.00000000    
  -1.5702448350570244       0.47233774007969154        0.00000000    
  -1.6806639828465251       0.42112783928312919        0.00000000    
  -1.7834022811613737       0.35146467051634039        0.00000000    
  -1.8734064417986946       0.25817775302229468        0.00000000    
  -1.9495445372495237       0.13632848099559952        0.00000000    
  -2.0027851806868489       -1.9988864648220743E-002   0.00000000    
  -2.0319628988463125      -0.20876611612118778        0.00000000    
  -2.0263467998995890      -0.43530488002137840        0.00000000    
  -1.9851613832172466      -0.67776063386544927        0.00000000    
  -1.9075431205534061      -0.93766294249094606        0.00000000    
  -1.7814209438104449       -1.1397211302269863        0.00000000    
  -1.5999536054332364       -1.5135891796416976        0.00000000    
  -1.8992200267290149       -1.1423107696053802        0.00000000    
   4.4665895813411531E-003  -4.4683171474234875        0.00000000    
   1.9190040262333723       -1.0888203271958721        0.00000000    
   1.6398234647019718       -1.4463603354553307        0.00000000    
   1.8020394337985155       -1.1145907537073398        0.00000000    
   1.9111575498074831      -0.88547012011673598        0.00000000    
   1.9717838454257031      -0.62208517306555622        0.00000000    
   2.0049910908702939      -0.39286610140282202        0.00000000    
   2.0086832188652113      -0.18137852415891348        0.00000000    
   1.9782391700570208       -6.4787096978318982E-003   0.00000000    
   1.9285487572655535       0.13741891380119398        0.00000000    
   1.8563549236555101       0.25223390374585114        0.00000000    
   1.7711393447756687       0.34194650998269194        0.00000000    
   1.6711460769018118       0.41098413831873476        0.00000000    
   1.5636687711205721       0.46253047420106685        0.00000000    
   1.4468486118148780       0.50100921356841455        0.00000000    
   1.3262858617871629       0.52833131334101746        0.00000000    
   1.1999989727796698       0.54827964006357388        0.00000000    
   1.0720449045743410       0.56153943948730334        0.00000000    
  0.94067195466680587       0.57105296138196493        0.00000000    
  0.80872174865602087       0.57672869580166330        0.00000000    
  0.67480477915149550       0.58080763550452796        0.00000000    
  0.54081203086317975       0.58275671250365335        0.00000000    
  0.40576676866899264       0.58431104195308525        0.00000000    
  0.27079854281337057       0.58468046723814615        0.00000000    
  0.13537678690875563       0.58525470706221627        0.00000000    
   0.0000000000000000       0.58506186042298647        0.00000000    
   0.0000000000000000       0.71727965066329757        0.00000000    
 -0.12643616926419607       0.71704617917593927        0.00000000    
 -0.25269108474675755       0.71691534893715825        0.00000000    
 -0.37880260502291041       0.71610038480352445        0.00000000    
 -0.50432084590753934       0.71496420622249968        0.00000000    
 -0.62946868097697239       0.71243391069581607        0.00000000    
 -0.75346154462858661       0.70860927053996725        0.00000000    
 -0.87669061030258377       0.70199929412340623        0.00000000    
 -0.99795375214580684       0.69229102480552829        0.00000000    
  -1.1178200424104536       0.67736801124967927        0.00000000    
  -1.2345744622194594       0.65621489845796621        0.00000000    
  -1.3490168799690212       0.62579956454035546        0.00000000    
  -1.4588189429450522       0.58391473177122499        0.00000000    
  -1.5651158870033617       0.52626693943926772        0.00000000    
  -1.6648161960067718       0.44876417767504978        0.00000000    
  -1.7594865694523238       0.34555277994684735        0.00000000    
  -1.8444000183888491       0.21000499845444415        0.00000000    
  -1.9202838603263626        3.5459103268859649E-002   0.00000000    
  -1.9742798067430734      -0.18104041946671831        0.00000000    
  -2.0128388775307613      -0.43008760483279618        0.00000000    
  -2.0272800203070998      -0.70972218296543232        0.00000000    
  -2.0198590436208432      -0.99074063273765456        0.00000000    
  -2.0989040599013506       -1.1337206004492142        0.00000000    
  -2.6665715997471313       -1.1333895078636063        0.00000000    
 -0.41666394350814145       -3.4731516821909998        0.00000000    
  0.60645783757000760       -5.0642846261890915        0.00000000    
  0.78596807312770045       -2.5869005265121996        0.00000000    
   2.3368139110884147       -1.2199454091668087        0.00000000    
   2.0018792902343243       -1.1682870282672444        0.00000000    
   1.9895057149073438      -0.92851838623451244        0.00000000    
   2.0022965168218656      -0.65245400448651469        0.00000000    
   1.9898046635638273      -0.38321266216563654        0.00000000    
   1.9459884617739882      -0.15090788960616555        0.00000000    
   1.8951071432803372        4.4376023052912668E-002   0.00000000    
   1.8259473179181225       0.20541441919989345        0.00000000    
   1.7482206337600401       0.33415891611607290        0.00000000    
   1.6576907765862139       0.43576693366245900        0.00000000    
   1.5612899432861438       0.51355781581306381        0.00000000    
   1.4559815426957885       0.57274250307510499        0.00000000    
   1.3476136233140354       0.61598526338152826        0.00000000    
   1.2332663362007974       0.64826530066599419        0.00000000    
   1.1172606342301230       0.67063824371611136        0.00000000    
  0.99729331231961005       0.68710222594804093        0.00000000    
  0.87648553899426163       0.69767089815317107        0.00000000    
  0.75313520230067610       0.70541130173250710        0.00000000    
  0.62942599818536504       0.70975120319234408        0.00000000    
  0.50417741798265459       0.71305447330475302        0.00000000    
  0.37881748339532884       0.71441847793211877        0.00000000    
  0.25264149838733002       0.71571724212081322        0.00000000    
  0.12644795422520669       0.71583323224472195        0.00000000    
   0.0000000000000000       0.71630807637270077        0.00000000    
   0.0000000000000000       0.83821700872591487        0.00000000    
 -0.11569861702528483       0.83824360740104686        0.00000000    
 -0.23126004579032983       0.83753426495809991        0.00000000    
 -0.34632322887027062       0.83665617213672028        0.00000000    
 -0.46094700260032384       0.83455043350263558        0.00000000    
 -0.57450249468594250       0.83155101056856129        0.00000000    
 -0.68724034421156743       0.82622288384334064        0.00000000    
 -0.79820869542447748       0.81858309770452697        0.00000000    
 -0.90788587608902016       0.80664754373131964        0.00000000    
  -1.0149382547109465       0.78993016120776482        0.00000000    
  -1.1201804209170729       0.76564933451448070        0.00000000    
  -1.2218498049773636       0.73247693029064842        0.00000000    
  -1.3213269876049683       0.68651661162444311        0.00000000    
  -1.4164109045895390       0.62504592062544384        0.00000000    
  -1.5094221467910049       0.54269674769415699        0.00000000    
  -1.5977689203344161       0.43463735691264643        0.00000000    
  -1.6852787849900612       0.29334373508193262        0.00000000    
  -1.7679398692463679       0.11066529283037096        0.00000000    
  -1.8460470549630417      -0.12414347689279737        0.00000000    
  -1.8996010403600265      -0.39487149122770410        0.00000000    
  -1.9322479179700554      -0.69785027618057882        0.00000000    
  -2.0100816368165626      -0.93219979736876557        0.00000000    
  -2.8693267708215933      -0.25397128423139009        0.00000000    
  -1.2312199200959062       -3.0835781408324809        0.00000000    
 -0.24573989489965051       -4.7583507246165011        0.00000000    
 -0.22032761633832199       -4.8276196492758690        0.00000000    
  0.74937038424360292       -3.9727737335189635        0.00000000    
   1.9027968738080676       -2.5383445355630316        0.00000000    
   2.8375496203964921      -0.44970602324959513        0.00000000    
   2.0535685575991174      -0.85074475336644084        0.00000000    
   1.9360627602135390      -0.62551264187777622        0.00000000    
   1.8742560569838209      -0.33585546829279944        0.00000000    
   1.8170486342685213       -9.7241458970978634E-002   0.00000000    
   1.7479832831915356       0.11065626198323215        0.00000000    
   1.6763903313764645       0.27988695744852304        0.00000000    
   1.5955961775382304       0.41820721585935344        0.00000000    
   1.5107548000831217       0.52708986854892026        0.00000000    
   1.4180242512249583       0.61136626308102826        0.00000000    
   1.3237232814814015       0.67454342614124041        0.00000000    
   1.2235196673764839       0.72275587379874773        0.00000000    
   1.1220113899202979       0.75735025481791618        0.00000000    
   1.0160855348512077       0.78348484660103568        0.00000000    
  0.90909446583576614       0.80121401398841796        0.00000000    
  0.79892448854924614       0.81453686072206655        0.00000000    
  0.68800447268265763       0.82281569172282898        0.00000000    
  0.57493248042550016       0.82912800957216781        0.00000000    
  0.46140178091810929       0.83245694663381631        0.00000000    
  0.34655588033622448       0.83522183977018261        0.00000000    
  0.23147444721202098       0.83617129841350890        0.00000000    
  0.11577278430879295       0.83727438301551027        0.00000000    
   0.0000000000000000       0.83708766413425473        0.00000000    
   0.0000000000000000       0.94813921584688043        0.00000000    
 -0.10364011313236077       0.94766013043606701        0.00000000    
 -0.20695847799431100       0.94699753554818766        0.00000000    
 -0.30982386823920721       0.94512147487004061        0.00000000    
 -0.41169517706749353       0.94258021332553132        0.00000000    
 -0.51262390216122478       0.93800544792383367        0.00000000    
 -0.61180811772908605       0.93169051157917215        0.00000000    
 -0.70951099402263906       0.92178669747425557        0.00000000    
 -0.80462197723200868       0.90823210783282227        0.00000000    
 -0.89771221971243065       0.88848821820803647        0.00000000    
 -0.98731515953237403       0.86193638353724022        0.00000000    
  -1.0745263043896975       0.82507041018533434        0.00000000    
  -1.1574842147340563       0.77635822469823612        0.00000000    
  -1.2382033608680449       0.71100737067055875        0.00000000    
  -1.3144296598009542       0.62597283877936238        0.00000000    
  -1.3895682549457689       0.51484663451670110        0.00000000    
  -1.4613513245696765       0.37242739175262490        0.00000000    
  -1.5357693936244106       0.18866078947268311        0.00000000    
  -1.6096117343588394       -5.0189447089899808E-002   0.00000000    
  -1.6645870174861839      -0.36029625250321912        0.00000000    
  -1.7541684835671876      -0.61019717122075612        0.00000000    
  -2.6067099470047692       -8.9477717119577957E-002   0.00000000    
  -1.0401771016896924       -1.8039810816657653        0.00000000    
 -0.22831612027208947       -3.9835361694953955        0.00000000    
 -0.31693346856588472       -4.7552553787317793        0.00000000    
   5.0054276856547404E-002  -5.2231150130972566        0.00000000    
   7.7629697251899638E-002  -4.5745517965529974        0.00000000    
  0.33482452666191453       -3.3471877854524648        0.00000000    
   1.4752017051110611       -1.7159927042797698        0.00000000    
   2.6085732269194057        6.6151474709508509E-002   0.00000000    
   1.7220194530608073      -0.53834929937469778        0.00000000    
   1.6490233779520194      -0.28821603245293764        0.00000000    
   1.5930845471750066       -3.1734641324586595E-002   0.00000000    
   1.5331707790275568       0.17412856356394985        0.00000000    
   1.4697020296919050       0.35147635701329971        0.00000000    
   1.4002869246251672       0.49682707520107711        0.00000000    
   1.3231799781382001       0.61041833314479088        0.00000000    
   1.2463767698160388       0.69757155566621953        0.00000000    
   1.1635010496182809       0.76551482349352451        0.00000000    
   1.0797784004196107       0.81571073975019337        0.00000000    
  0.99103810460720365       0.85464396213173610        0.00000000    
  0.90092151139850252       0.88223358756468695        0.00000000    
  0.80683481431087734       0.90354303912491818        0.00000000    
  0.71143238198548742       0.91778024519677892        0.00000000    
  0.61309249413965439       0.92883221095796220        0.00000000    
  0.51374129468917717       0.93553468204365819        0.00000000    
  0.41240216308557232       0.94092010527103775        0.00000000    
  0.31040810223732851       0.94359864256180459        0.00000000    
  0.20727325698704985       0.94601077399434474        0.00000000    
  0.10382206921155698       0.94658775811185769        0.00000000    
   0.0000000000000000       0.94736914255647786        0.00000000    
   0.0000000000000000        1.0450385284533703        0.00000000    
  -9.0438389292053792E-002   1.0448393202522019        0.00000000    
 -0.18055303239869130        1.0432513536991042        0.00000000    
 -0.26984118578309507        1.0410212003463770        0.00000000    
 -0.35814039349016946        1.0368510043832826        0.00000000    
 -0.44473514244051315        1.0312581309078368        0.00000000    
 -0.52963368231206698        1.0225205840335996        0.00000000    
 -0.61186287451234855        1.0108886935110344        0.00000000    
 -0.69165965729292689       0.99403787778533781        0.00000000    
 -0.76773606497066038       0.97184909841068812        0.00000000    
 -0.84070254989085236       0.94114492807446593        0.00000000    
 -0.90887036860145121       0.90124082921260318        0.00000000    
 -0.97351049387962019       0.84778584129372947        0.00000000    
  -1.0323651474759057       0.77915355380135820        0.00000000    
  -1.0877953360801080       0.68948314318654780        0.00000000    
  -1.1366732648383484       0.57535285400787095        0.00000000    