 <VTKFile type="UnstructuredGrid" version="0.1" byte_order="BigEndian">
 <UnstructuredGrid>
 <Piece NumberOfPoints="        2601 " NumberOfCells="        2500 ">
 <PointData Scalars="scalars">
 <DataArray type="Float32" NumberOfComponents="3" Name="Velocity" Format="ascii">
   0.0000000000000000        0.0000000000000000        0.00000000    
  -5.2550689251118783E-002   0.0000000000000000        0.00000000    
 -0.10441233861770055        0.0000000000000000        0.00000000    
 -0.15478765927707316        0.0000000000000000        0.00000000    
 -0.20311493188516103        0.0000000000000000        0.00000000    
 -0.24851379486866665        0.0000000000000000        0.00000000    
 -0.29056628823365976        0.0000000000000000        0.00000000    
 -0.32834346208267012        0.0000000000000000        0.00000000    
 -0.36158791055395939        0.0000000000000000        0.00000000    
 -0.38936804573640199        0.0000000000000000        0.00000000    
 -0.41160589353723659        0.0000000000000000        0.00000000    
 -0.42742487599022266        0.0000000000000000        0.00000000    
 -0.43694706138458700        0.0000000000000000        0.00000000    
 -0.43941764303970277        0.0000000000000000        0.00000000    
 -0.43517797572367306        0.0000000000000000        0.00000000    
 -0.42366485604571230        0.0000000000000000        0.00000000    
 -0.40545077586118800        0.0000000000000000        0.00000000    
 -0.38022757168990790        0.0000000000000000        0.00000000    
 -0.34879519347751481        0.0000000000000000        0.00000000    
 -0.31114586335459293        0.0000000000000000        0.00000000    
 -0.26827959690815806        0.0000000000000000        0.00000000    
 -0.22050488987834924        0.0000000000000000        0.00000000    
 -0.16896559913202977        0.0000000000000000        0.00000000    
 -0.11426538364861262        0.0000000000000000        0.00000000    
  -5.7607930172542426E-002   0.0000000000000000        0.00000000    
   1.6649579965467815E-004   0.0000000000000000        0.00000000    
   5.7897358359214987E-002   0.0000000000000000        0.00000000    
  0.11459573760652947        0.0000000000000000        0.00000000    
  0.16925078781734512        0.0000000000000000        0.00000000    
  0.22082728248152997        0.0000000000000000        0.00000000    
  0.26855614017631113        0.0000000000000000        0.00000000    
  0.31145488358245155        0.0000000000000000        0.00000000    
  0.34905847829482878        0.0000000000000000        0.00000000    
  0.38051782267631240        0.0000000000000000        0.00000000    
  0.40569612068088279        0.0000000000000000        0.00000000    
  0.42393119521762757        0.0000000000000000        0.00000000    
  0.43540091609028841        0.0000000000000000        0.00000000    
  0.43965549572321577        0.0000000000000000        0.00000000    
  0.43714367569973872        0.0000000000000000        0.00000000    
  0.42763050495545279        0.0000000000000000        0.00000000    
  0.41177305347819598        0.0000000000000000        0.00000000    
  0.38953868961796850        0.0000000000000000        0.00000000    
  0.36172337863881299        0.0000000000000000        0.00000000    
  0.32847731044405265        0.0000000000000000        0.00000000    
  0.29066865629072403        0.0000000000000000        0.00000000    
  0.24860982246560229        0.0000000000000000        0.00000000    
  0.20318343942941183        0.0000000000000000        0.00000000    
  0.15484538658223174        0.0000000000000000        0.00000000    
  0.10444664843959296        0.0000000000000000        0.00000000    
   5.2569944060704039E-002   0.0000000000000000        0.00000000    
   0.0000000000000000        0.0000000000000000        0.00000000    
   0.0000000000000000        5.2817132838619239E-002   0.00000000    
  -5.2709952432348169E-002   5.2443508845647024E-002   0.00000000    
 -0.10467388643603198        5.1382074525418750E-002   0.00000000    
 -0.15526466370961983        4.9584023408340130E-002   0.00000000    
 -0.20363866659741856        4.7117252088347231E-002   0.00000000    
 -0.24930456787194949        4.3947512170486640E-002   0.00000000    
 -0.29135027269299951        4.0150686016357733E-002   0.00000000    
 -0.32943623125035010        3.5712446390799298E-002   0.00000000    
 -0.36262169220739160        3.0717463038333444E-002   0.00000000    
 -0.39073641815430749        2.5177398091819993E-002   0.00000000    
 -0.41286291883912823        1.9186950394637341E-002   0.00000000    
 -0.42902024303859559        1.2789356258609929E-002   0.00000000    
 -0.43837720320128332        6.0897892992443142E-003   0.00000000    
 -0.44116295463269517       -8.3345621192404482E-004   0.00000000    
 -0.43670257853582467       -7.8665872001739481E-003   0.00000000    
 -0.42545241233405756       -1.4896698678762586E-002   0.00000000    
 -0.40696285819983241       -2.1806935639184614E-002   0.00000000    
 -0.38192339202588249       -2.8455734705254965E-002   0.00000000    
 -0.35016689889796787       -3.4733136634250934E-002   0.00000000    
 -0.31260207528886003       -4.0481017096989043E-002   0.00000000    
 -0.26937732493415661       -4.5609999703347469E-002   0.00000000    
 -0.22157936293792896       -4.9962669321899904E-002   0.00000000    
 -0.16967071920272153       -5.3485265158825290E-002   0.00000000    
 -0.11484499040614292       -5.6040679120381687E-002   0.00000000    
  -5.7838382276095009E-002  -5.7623382484935211E-002   0.00000000    
   1.4486285043570127E-004  -5.8134288613003876E-002   0.00000000    
   5.8170623261561812E-002  -5.7622334356881209E-002   0.00000000    
  0.11513261821254203       -5.6038039840624491E-002   0.00000000    
  0.16999767886230302       -5.3482071019150944E-002   0.00000000    
  0.22186059906673447       -4.9957343848676408E-002   0.00000000    
  0.26969363105096072       -4.5604545829529906E-002   0.00000000    
  0.31287240272284195       -4.0472969247701454E-002   0.00000000    
  0.35046711106658102       -3.4725333807613758E-002   0.00000000    
  0.38217811924191447       -2.8445018748412383E-002   0.00000000    
  0.40724164913764815       -2.1796809151090540E-002   0.00000000    
  0.42568690311373319       -1.4883519360947608E-002   0.00000000    
  0.43695503270225827       -7.8543310994372405E-003   0.00000000    
  0.44137296120179853       -8.1817703223729585E-004   0.00000000    
  0.43859913275650614        6.1038255018077007E-003   0.00000000    
  0.42920221571862754        1.2806262281151080E-002   0.00000000    
  0.41305107950783565        1.9202325407698683E-002   0.00000000    
  0.39088768784647832        2.5195430114681526E-002   0.00000000    
  0.36277383909285282        3.0733729618900384E-002   0.00000000    
  0.32955501983204483        3.5731157837464250E-002   0.00000000    
  0.29146505031191172        4.0167465836798144E-002   0.00000000    
  0.24938985151284751        4.3966566788185169E-002   0.00000000    
  0.20371539036851519        4.7134277393137920E-002   0.00000000    
  0.15531595226677214        4.9603213556583946E-002   0.00000000    
  0.10471228539878094        5.1399191454846081E-002   0.00000000    
   5.2727062359693343E-002   5.2462735963929370E-002   0.00000000    
   0.0000000000000000        5.2834270457267539E-002   0.00000000    
   0.0000000000000000       0.10589422044812213        0.00000000    
  -5.3127942243550330E-002  0.10520431591283458        0.00000000    
 -0.10556756955846354       0.10302482877761752        0.00000000    
 -0.15651927920604758        9.9483756078107569E-002   0.00000000    
 -0.20542345919416494        9.4495702295282563E-002   0.00000000    
 -0.25139283113141653        8.8204335176130674E-002   0.00000000    
 -0.29401140416208521        8.0558140863216457E-002   0.00000000    
 -0.33233749507787880        7.1717041017883468E-002   0.00000000    
 -0.36611440822224361        6.1675242513436868E-002   0.00000000    
 -0.39439146804922698        5.0611404391416530E-002   0.00000000    
 -0.41708975172233498        3.8577728453748066E-002   0.00000000    
 -0.43330776774505125        2.5773918422485258E-002   0.00000000    
 -0.44316562708040003        1.2320046634181337E-002   0.00000000    
 -0.44587973985078871       -1.5638493442571115E-003   0.00000000    
 -0.44179037248645209       -1.5685937528274341E-002   0.00000000    
 -0.43030519063303890       -2.9812696405038003E-002   0.00000000    
 -0.41199938291976090       -4.3686299759640744E-002   0.00000000    
 -0.38654007378107608       -5.7075145896628245E-002   0.00000000    
 -0.35473689594471375       -6.9673396406384869E-002   0.00000000    
 -0.31656684407251212       -8.1275632805358461E-002   0.00000000    
 -0.27304883301062982       -9.1558145410795211E-002   0.00000000    
 -0.22448950156324218      -0.10037181705726153        0.00000000    
 -0.17206071350138938      -0.10741354921975604        0.00000000    
 -0.11637882691327354      -0.11262001044333918        0.00000000    
  -5.8681425083767315E-002 -0.11574806112076451        0.00000000    
   1.6630913843853669E-004 -0.11684058932510526        0.00000000    
   5.8969948882577644E-002 -0.11574543379927701        0.00000000    
  0.11670882459391224      -0.11261581105973804        0.00000000    
  0.17234507145957476      -0.10740560731469205        0.00000000    
  0.22481156914110534      -0.10036322543829329        0.00000000    
  0.27332464667821782       -9.1544773760481868E-002   0.00000000    
  0.31687553763314330       -8.1262403942752262E-002   0.00000000    
  0.35499951283590236       -6.9654582658289388E-002   0.00000000    
  0.38682991946119766       -5.7057184697562643E-002   0.00000000    
  0.41224403757531874       -4.3662291211021505E-002   0.00000000    
  0.43057096294305147       -2.9790216644032308E-002   0.00000000    
  0.44201251671524600       -1.5657317176296180E-002   0.00000000    
  0.44611681417390081       -1.5374169127728174E-003   0.00000000    
  0.44336129993425677        1.2352408068057525E-002   0.00000000    
  0.43351242139171736        2.5803475296118768E-002   0.00000000    
  0.41725585255508735        3.8612817440933193E-002   0.00000000    
  0.39456102350803474        5.0643158790655347E-002   0.00000000    
  0.36624879238876928        6.1712080816600123E-002   0.00000000    
  0.33247027473868901        7.1750143551449819E-002   0.00000000    
  0.29411279199564072        8.0595932386778549E-002   0.00000000    
  0.25148795841978944        8.8238132613916068E-002   0.00000000    
  0.20549122321572905        9.4533907916586543E-002   0.00000000    
  0.15657640642060264        9.9517837930799297E-002   0.00000000    
  0.10560147839355810       0.10306316197645535        0.00000000    
   5.3146986337342154E-002  0.10523848053841611        0.00000000    
   0.0000000000000000       0.10593257458060704        0.00000000    
   0.0000000000000000       0.15960138700346552        0.00000000    
  -5.3855033921083657E-002  0.15848012552290730        0.00000000    
 -0.10696324936072063       0.15529686192288131        0.00000000    
 -0.15870112757941574       0.14990131079990077        0.00000000    
 -0.20821652965277715       0.14249772963575835        0.00000000    
 -0.25502290570587072       0.13297805582677336        0.00000000    
 -0.29818903085379039       0.12156911839195644        0.00000000    
 -0.33737853261558831       0.10822165616750365        0.00000000    
 -0.37161901016063642        9.3188018054027336E-002   0.00000000    
 -0.40074012920248731        7.6496807720425219E-002   0.00000000    
 -0.42378003263683617        5.8430512232997070E-002   0.00000000    
 -0.44075450317748782        3.9113621207364883E-002   0.00000000    
 -0.45077759138727536        1.8861291395241536E-002   0.00000000    
 -0.45407449485930806       -2.0940778621392755E-003   0.00000000    
 -0.44991059276049999       -2.3408978472730626E-002   0.00000000    
 -0.43874253036542404       -4.4742899708317324E-002   0.00000000    
 -0.42006458371619149       -6.5739850818064036E-002   0.00000000    
 -0.39457735013224549       -8.5968137560084923E-002   0.00000000    
 -0.36207153114066298      -0.10508940157006386        0.00000000    
 -0.32348381085294947      -0.12261739980084591        0.00000000    
 -0.27894403101080373      -0.13827416931852538        0.00000000    
 -0.22958642583250910      -0.15157272977446673        0.00000000    
 -0.17588428687142560      -0.16234356352467638        0.00000000    
 -0.11909505834932128      -0.17016111124789238        0.00000000    
  -5.9994045372205228E-002 -0.17500537512202344        0.00000000    
   1.4394068208557341E-004 -0.17656899559959630        0.00000000    
   6.0325546931550234E-002 -0.17500227351757977        0.00000000    
  0.11938092581426545      -0.17015322593473758        0.00000000    
  0.17621056878934691      -0.16233408227962759        0.00000000    
  0.22986610003891239      -0.15155677940370535        0.00000000    
  0.27925970567258041      -0.13825790296504267        0.00000000    
  0.32375276160876693      -0.12259322162855200        0.00000000    
  0.36237103839619383      -0.10506601696186985        0.00000000    
  0.39483074586526623       -8.5935864487595548E-002   0.00000000    
  0.42034241698964264       -6.5709400658682415E-002   0.00000000    
  0.43897554576121711       -4.4703161334921679E-002   0.00000000    
  0.45016168863855521       -2.3372069134137828E-002   0.00000000    
  0.45428274529056301       -2.0480190648329527E-003   0.00000000    
  0.45099772170132657        1.8903548049797287E-002   0.00000000    
  0.44093442692346035        3.9164508635548871E-002   0.00000000    
  0.42396605942233945        5.8476720440050860E-002   0.00000000    
  0.40088918700918674        7.6550957252510710E-002   0.00000000    
  0.37176891822438751        9.3236782259603690E-002   0.00000000    
  0.33749518314824944       0.10827769483543545        0.00000000    
  0.29830176356310417       0.12161928343177851        0.00000000    
  0.25510640194186446       0.13303497676678139        0.00000000    
  0.20829169504618461       0.14254850586425091        0.00000000    
  0.15875122883703124       0.14995852298819276        0.00000000    
  0.10700080655949898       0.15534782722442522        0.00000000    
   5.3871727999637277E-002  0.15853738590730457        0.00000000    
   0.0000000000000000       0.15965238354948169        0.00000000    
   0.0000000000000000       0.21406658094887518        0.00000000    
  -5.4819037976236010E-002  0.21268900347559383        0.00000000    
 -0.10895345238787948       0.20833061382224555        0.00000000    
 -0.16159815966379681       0.20125014439593136        0.00000000    
 -0.21220135737632428       0.19126749582638083        0.00000000    
 -0.25985631318653346       0.17866962150024149        0.00000000    
 -0.30415427587207028       0.16334164055270300        0.00000000    
 -0.34411628741649047       0.14560064731376840        0.00000000    
 -0.37948873722656989       0.12542195426364267        0.00000000    
 -0.40926392184194482       0.10315917516883384        0.00000000    
 -0.43336035173432691        7.8904478112065995E-002   0.00000000    
 -0.45080096104050982        5.3054735175933294E-002   0.00000000    
 -0.46169932764012422        2.5841632236816278E-002   0.00000000    
 -0.46518331995248668       -2.2935229185124914E-003   0.00000000    
 -0.46158832216834900       -3.0968433298566519E-002   0.00000000    
 -0.45023108930412931       -5.9708740140967699E-002   0.00000000    
 -0.43169275354483877       -8.7990292793204430E-002   0.00000000    
 -0.40556203149014836      -0.11533565122276884        0.00000000    
 -0.37267585033788392      -0.14111388805049788        0.00000000    
 -0.33296162430261406      -0.16489485964258108        0.00000000    
 -0.28749471675833183      -0.18600339686249140        0.00000000    
 -0.23657403330437046      -0.20412179086194188        0.00000000    
 -0.18145742448401561      -0.21861325021791400        0.00000000    
 -0.12279984630178885      -0.22933823125817032        0.00000000    
  -6.1944468960892833E-002 -0.23578464542903274        0.00000000    
   1.6574404889929710E-004 -0.23803792435585486        0.00000000    
   6.2230224639750961E-002 -0.23577943160091155        0.00000000    
  0.12312877473074559      -0.22932999682430191        0.00000000    
  0.18173926301779708      -0.21859744265146858        0.00000000    
  0.23689514406919307      -0.20410483133201482        0.00000000    
  0.28776834658985306      -0.18597665919033077        0.00000000    
  0.33326936260837681      -0.16486853735716495        0.00000000    
  0.37293648283385827      -0.14107609824543166        0.00000000    
  0.40585066805996384      -0.11529967589840491        0.00000000    
  0.43193533582281401       -8.7941928134362260E-002   0.00000000    
  0.45049511666714881       -5.9663543474347436E-002   0.00000000    
  0.46180802457218240       -3.0910737776341960E-002   0.00000000    
  0.46541795337803332       -2.2403358796871586E-003   0.00000000    
  0.46189206539850342        2.5906776434164374E-002   0.00000000    
  0.45100253364930015        5.3114106779048410E-002   0.00000000    
  0.43352312577737839        7.8974897670345032E-002   0.00000000    
  0.40943003331816707       0.10322274489537395        0.00000000    
  0.37961970542537843       0.12549559129508409        0.00000000    
  0.34424568772561398       0.14566663857664697        0.00000000    
  0.30425257473163692       0.16341687227045001        0.00000000    
  0.25994859873810361       0.17873672554366876        0.00000000    
  0.21226678023094081       0.19134328249097141        0.00000000    
  0.16165339563775996       0.20131759716458911        0.00000000    
  0.10898609992453125       0.20840647103955942        0.00000000    
   5.4837419366933475E-002  0.21275650121040773        0.00000000    
   0.0000000000000000       0.21414241561372316        0.00000000    
   0.0000000000000000       0.26975287386663388        0.00000000    
  -5.6062558273292949E-002  0.26788430680812914        0.00000000    
 -0.11137968185668978       0.26258684848552322        0.00000000    
 -0.16533810591443171       0.25359704106707021        0.00000000    
 -0.21707144811124371       0.24125713906536139        0.00000000    
 -0.26610558589832922       0.22536907185930505        0.00000000    
 -0.31147335855630504       0.20630792553793911        0.00000000    
 -0.35284714810160561       0.18397016341899486        0.00000000    
 -0.38919258520805655       0.15877032507574043        0.00000000    
 -0.42034052992266796       0.13073393368745687        0.00000000    
 -0.44523998669753501       0.10032560626149219        0.00000000    
 -0.46389994373440624        6.7734173370288739E-002   0.00000000    
 -0.47532203674391443        3.3482653652388762E-002   0.00000000    
 -0.47972124863353410       -2.0513401313819873E-003   0.00000000    
 -0.47623779517854187       -3.8289067324016719E-002   0.00000000    
 -0.46532492132659387       -7.4658212830969906E-002   0.00000000    
 -0.44635653590198882      -0.11054754128628386        0.00000000    
 -0.42005113052626419      -0.14521453015939403        0.00000000    
 -0.38610629393863571      -0.17806602685294853        0.00000000    
 -0.34551223701373834      -0.20825100379959066        0.00000000    
 -0.29835501772794815      -0.23527137953473504        0.00000000    
 -0.24586548502978745      -0.25826402434111601        0.00000000    
 -0.18853650550986700      -0.27691660507819482        0.00000000    
 -0.12775944038042703      -0.29046951970885260        0.00000000    
  -6.4391574923630512E-002 -0.29887659977522324        0.00000000    
   1.4203686038805614E-004 -0.30158979480277120        0.00000000    
   6.4721585085415811E-002 -0.29887158996905566        0.00000000    
  0.12804170062206369      -0.29045650408309492        0.00000000    
  0.18886145500429802      -0.27690117806114439        0.00000000    
  0.24614202114567685      -0.25823754311440605        0.00000000    
  0.29866948494498763      -0.23524461372709601        0.00000000    
  0.34577847293434227      -0.20821058682756616        0.00000000    
  0.38640443379856254      -0.17802712986392144        0.00000000    
  0.42030189231437487      -0.14516028802111627        0.00000000    
  0.44663242152729821      -0.11049651298661764        0.00000000    
  0.46555493437029094       -7.4591252308697509E-002   0.00000000    
  0.47648601960681503       -3.8227022082747274E-002   0.00000000    
  0.47992581618577673       -1.9737769573665380E-003   0.00000000    
  0.47553829436444717        3.3553627313501193E-002   0.00000000    
  0.46407549384131230        6.7819588172783635E-002   0.00000000    
  0.44542139375548140       0.10040292423515548        0.00000000    
  0.42048483460461406       0.13082436994138216        0.00000000    
  0.38933765078108401       0.15885147796618276        0.00000000    
  0.35295919895264921       0.18406322143449316        0.00000000    
  0.31158167801475062       0.20639092334526271        0.00000000    
  0.26618524127747073       0.22546308720042099        0.00000000    
  0.21714326101673476       0.24134071960289641        0.00000000    
  0.16538566127504173       0.25369114438829593        0.00000000    
  0.11141543253894408       0.26267044826595221        0.00000000    
   5.6078361458691176E-002  0.26797827562262827        0.00000000    
   0.0000000000000000       0.26983642202789521        0.00000000    
   0.0000000000000000       0.32662713525696951        0.00000000    
  -5.7496757464293516E-002  0.32456936115614110        0.00000000    
 -0.11432002705264745       0.31804218731001360        0.00000000    
 -0.16966042781777835       0.30744052706622294        0.00000000    
 -0.22298411514843217       0.29247068259441639        0.00000000    
 -0.27335632580006869       0.27356187676975152        0.00000000    
 -0.32038492030374521       0.25051148778987758        0.00000000    
 -0.36303212953570047       0.22378759994510042        0.00000000    
 -0.40105291948096228       0.19331911560207130        0.00000000    
 -0.43334569888413604       0.15962586727970726        0.00000000    
 -0.45982595643586871       0.12281338699655596        0.00000000    
 -0.47938831025353823        8.3468703490569049E-002   0.00000000    
 -0.49213348082179292        4.1915387110577747E-002   0.00000000    
 -0.49703472651316599       -1.1836160077685141E-003   0.00000000    
 -0.49441381383156924       -4.5261157583520020E-002   0.00000000    
 -0.48342411419534498       -8.9588696058823691E-002   0.00000000    
 -0.46464899276217309      -0.13336056491551432        0.00000000    
 -0.43753153389111960      -0.17582437077612215        0.00000000    
 -0.40294751672173773      -0.21598503999254326        0.00000000    
 -0.36072760727548053      -0.25314595703032783        0.00000000    
 -0.31203982680587683      -0.28622142605870748        0.00000000    
 -0.25716197938072860      -0.31468135793962776        0.00000000    
 -0.19750190459214539      -0.33748832578750465        0.00000000    
 -0.13378029706857053      -0.35439647165173238        0.00000000    
  -6.7530262473503549E-002 -0.36456754788352574        0.00000000    
   1.6479010129958661E-004 -0.36812751105246583        0.00000000    
   6.7811219451686860E-002 -0.36455985129409302        0.00000000    
  0.13410745535708415      -0.35438459419927987        0.00000000    
  0.19777946290755416      -0.33746484987697817        0.00000000    
  0.25748157882881223      -0.31465655336039045        0.00000000    
  0.31230986081860146      -0.28618134926952221        0.00000000    
  0.36103386157413897      -0.25310684002921652        0.00000000    
  0.40320492796713969      -0.21592790391879688        0.00000000    
  0.43781818128913719      -0.17577022580323926        0.00000000    
  0.46488811766619670      -0.13328704079377662        0.00000000    
  0.48368507563184188       -8.9520195309370804E-002   0.00000000    
  0.49462925586561024       -4.5173344551658896E-002   0.00000000    
  0.49726491303602244       -1.1029082370284968E-003   0.00000000    
  0.49232093074403294        4.2014262707196701E-002   0.00000000    
  0.47958419388949913        8.3558490157551554E-002   0.00000000    
  0.45998264953461737       0.12291966669182208        0.00000000    
  0.43350544056581408       0.15972139560517443        0.00000000    
  0.40117762239220189       0.19342945430026201        0.00000000    
  0.36315530189037404       0.22388601743145908        0.00000000    
  0.32047756293288276       0.25062338724442318        0.00000000    
  0.27344339815103336       0.27366122482116562        0.00000000    
  0.22304526360775292       0.29258269678691140        0.00000000    
  0.16971220859591785       0.30753982195857937        0.00000000    
  0.11435037767986882       0.31815383034856587        0.00000000    
   5.7513930440612489E-002  0.32466841186028722        0.00000000    
   0.0000000000000000       0.32673857769029685        0.00000000    
   0.0000000000000000       0.38523032053555045        0.00000000    
  -5.9156994107071287E-002  0.38261992744967299        0.00000000    
 -0.11757794101829815       0.37523583751682155        0.00000000    
 -0.17467236281260151       0.36268169941958589        0.00000000    
 -0.22955950977141917       0.34544034453129485        0.00000000    
 -0.28179113875382605       0.32319605446764188        0.00000000    
 -0.33035228030681085       0.29646704614942898        0.00000000    
 -0.37493480359965131       0.26506177411105897        0.00000000    
 -0.41441532599917535       0.22954625378168900        0.00000000    
 -0.44863059234479541       0.18990677484958715        0.00000000    
 -0.47639575122165573       0.14677789585606865        0.00000000    
 -0.49770960277005255       0.10038039999781619        0.00000000    
 -0.51139873449712325        5.1437992899463762E-002   0.00000000    
 -0.51765730303989610        4.5359243817591076E-004   0.00000000    
 -0.51542364231439419       -5.1752939435747956E-002   0.00000000    
 -0.50513528015634035      -0.10437497600019773        0.00000000    
 -0.48596448815762722      -0.15652019840520437        0.00000000    
 -0.45864429219561165      -0.20710239211883183        0.00000000    
 -0.42270879734776057      -0.25522653066624112        0.00000000    
 -0.37922075772271330      -0.29961241542727041        0.00000000    
 -0.32818148251360207      -0.33948202333965061        0.00000000    
 -0.27097004095335769      -0.37351004964341694        0.00000000    
 -0.20810225769143148      -0.40118749213339455        0.00000000    
 -0.14118710428915202      -0.42133406623103764        0.00000000    
  -7.1214755429403073E-002 -0.43385233675820645        0.00000000    
   1.3902756416143278E-004 -0.43789155774549288        0.00000000    
   7.1542517479513124E-002 -0.43384572386597625        0.00000000    
  0.14146374233792428      -0.42131618239054319        0.00000000    
  0.20842529968605872      -0.40116682658349379        0.00000000    
  0.27124186701917963      -0.37347325990758845        0.00000000    
  0.32849432448206300      -0.33944538217417519        0.00000000    
  0.37948307133572567      -0.29955555473309181        0.00000000    
  0.42300502952620833      -0.25517221379758881        0.00000000    
  0.45889120900471286      -0.20702534872427031        0.00000000    
  0.48623736638358428      -0.15644801162786637        0.00000000    
  0.50536064993797525      -0.10427946599463062        0.00000000    
  0.51566713036823109       -5.1664734529619782E-002   0.00000000    
  0.51785587250263154        5.6408243681438494E-004   0.00000000    
  0.51160842986993404        5.1538696958837400E-002   0.00000000    
  0.49787783925696716       0.10050138337411493        0.00000000    
  0.47656928248244840       0.14688687460544902        0.00000000    
  0.44876688317353747       0.19003379596997325        0.00000000    
  0.41455216179134474       0.22965959349205037        0.00000000    
  0.37503910718299110       0.26519125335057281        0.00000000    
  0.33045314878401394       0.29658184868255316        0.00000000    
  0.28186435345334915       0.32332572349627886        0.00000000    
  0.22962569800896401       0.34555498810023139        0.00000000    
  0.17471566654203949       0.36281061712475637        0.00000000    
  0.11761067347201599       0.37534985916922153        0.00000000    
   5.9171313573760778E-002  0.38274819017788803        0.00000000    
   0.0000000000000000       0.38534404338782186        0.00000000    
   0.0000000000000000       0.44532956976684002        0.00000000    
  -6.0932492025208666E-002  0.44261016435140915        0.00000000    
 -0.12121722027876959       0.43395127578060610        0.00000000    
 -0.18004873237379759       0.41989219504589143        0.00000000    
 -0.23692855473818458       0.39999681822891359        0.00000000    
 -0.29089209191873316       0.37483474693374991        0.00000000    
 -0.34158031890945745       0.34407772222773697        0.00000000    
 -0.38788085504705200       0.30833415746396897        0.00000000    
 -0.42956877690786655       0.26744231468981183        0.00000000    
 -0.46541483596901845       0.22207203934903080        0.00000000    
 -0.49533419936750134       0.17229715363265041        0.00000000    
 -0.51803852035705855       0.11887931475999339        0.00000000    
 -0.53360740451868238        6.2197094026651696E-002   0.00000000    
 -0.54078407904563064        3.1297343815231303E-003   0.00000000    
 -0.53985962266091048       -5.7587198488656482E-002   0.00000000    
 -0.52973353333481998      -0.11895516843061191        0.00000000    