 <VTKFile type="UnstructuredGrid" version="0.1" byte_order="BigEndian">
 <UnstructuredGrid>
 <Piece NumberOfPoints="        2601 " NumberOfCells="        2500 ">
 <PointData Scalars="scalars">
 <DataArray type="Float32" NumberOfComponents="3" Name="Velocity" Format="ascii">
   0.0000000000000000        0.0000000000000000        0.00000000    
  -8.9713701928136033E-002   0.0000000000000000        0.00000000    
 -0.18038746329493002        0.0000000000000000        0.00000000    
 -0.27308826452696922        0.0000000000000000        0.00000000    
 -0.36884270861839080        0.0000000000000000        0.00000000    
 -0.46901809263455457        0.0000000000000000        0.00000000    
 -0.57490553229625063        0.0000000000000000        0.00000000    
 -0.68843163695759169        0.0000000000000000        0.00000000    
 -0.81136245815151276        0.0000000000000000        0.00000000    
 -0.94644880646284257        0.0000000000000000        0.00000000    
  -1.0955994561284388        0.0000000000000000        0.00000000    
  -1.2612985362070332        0.0000000000000000        0.00000000    
  -1.4386995418756743        0.0000000000000000        0.00000000    
  -1.6088696105949190        0.0000000000000000        0.00000000    
  -1.7012505451290996        0.0000000000000000        0.00000000    
  -1.7136909666193305        0.0000000000000000        0.00000000    
  -1.6974662126638089        0.0000000000000000        0.00000000    
  -2.1152129658543215        0.0000000000000000        0.00000000    
  -1.5457990148196561        0.0000000000000000        0.00000000    
  -1.0196350826639307        0.0000000000000000        0.00000000    
 -0.64658356395638994        0.0000000000000000        0.00000000    
 -0.25749262004154483        0.0000000000000000        0.00000000    
 -0.16870292163799200        0.0000000000000000        0.00000000    
   3.6157697907234478E-002   0.0000000000000000        0.00000000    
  -8.7488766377698778E-003   0.0000000000000000        0.00000000    
   8.2709303815191731E-002   0.0000000000000000        0.00000000    
  0.12857875727939158        0.0000000000000000        0.00000000    
  0.15704558758288897        0.0000000000000000        0.00000000    
  0.30846699990649329        0.0000000000000000        0.00000000    
  0.43840543278846089        0.0000000000000000        0.00000000    
  0.73127693910012181        0.0000000000000000        0.00000000    
   1.1530730615334397        0.0000000000000000        0.00000000    
   1.5358506671780177        0.0000000000000000        0.00000000    
   2.0887850391374752        0.0000000000000000        0.00000000    
   1.9917973567999578        0.0000000000000000        0.00000000    
   1.7874803464470053        0.0000000000000000        0.00000000    
   1.7157548992321732        0.0000000000000000        0.00000000    
   1.6141806135258601        0.0000000000000000        0.00000000    
   1.4372012775521681        0.0000000000000000        0.00000000    
   1.2568624778090121        0.0000000000000000        0.00000000    
   1.0899797095272339        0.0000000000000000        0.00000000    
  0.94099855297142221        0.0000000000000000        0.00000000    
  0.80627951329808534        0.0000000000000000        0.00000000    
  0.68404959883550753        0.0000000000000000        0.00000000    
  0.57115524132265971        0.0000000000000000        0.00000000    
  0.46597907722411425        0.0000000000000000        0.00000000    
  0.36643291767513808        0.0000000000000000        0.00000000    
  0.27132334991124818        0.0000000000000000        0.00000000    
  0.17921561688399731        0.0000000000000000        0.00000000    
   8.9136349892741301E-002   0.0000000000000000        0.00000000    
   0.0000000000000000        0.0000000000000000        0.00000000    
   0.0000000000000000        8.8687839245379638E-002   0.00000000    
  -8.8132852782390733E-002   8.9158715462894805E-002   0.00000000    
 -0.17717665471460758        9.0558847833862033E-002   0.00000000    
 -0.26801339187970169        9.2978690561008298E-002   0.00000000    
 -0.36172208543566947        9.6484447084112954E-002   0.00000000    
 -0.45929231982375524       0.10126117131784947        0.00000000    
 -0.56212995916898989       0.10746390768678804        0.00000000    
 -0.67146040878370028       0.11539264658694000        0.00000000    
 -0.78915983790478050       0.12523760372573584        0.00000000    
 -0.91660015016559693       0.13728905684404419        0.00000000    
  -1.0557990730339606       0.15106051568757456        0.00000000    
  -1.2062949813109878       0.16513447266566564        0.00000000    
  -1.3656202041938934       0.17159175588364983        0.00000000    
  -1.5134072646104151       0.14636537324995644        0.00000000    
  -1.6045395439105086        3.7147840582634387E-002   0.00000000    
  -1.8120233784696393       0.18277641546651660        0.00000000    
  -2.4047427993996138       0.39371825156106705        0.00000000    
  -1.8558762500184396      -0.52483804769719167        0.00000000    
  -1.4146293091586997      -0.48582284414607774        0.00000000    
 -0.98612106364777441      -0.46884933346786173        0.00000000    
 -0.54660395728809708      -0.34371929154797359        0.00000000    
 -0.34028296519081302      -0.25169264441242495        0.00000000    
  -6.0105600446095864E-002 -0.11727441868455621        0.00000000    
 -0.10117344593809510       -4.6518355317584165E-002   0.00000000    
   5.1255564002187774E-002  -6.1004080026750646E-002   0.00000000    
   3.9744463734432064E-002  -1.8943000107558946E-002   0.00000000    
  0.10244183695459948       -8.9623826526097627E-002   0.00000000    
  0.23004620682106575       -6.6447373592691539E-002   0.00000000    
  0.24775229063354012      -0.10268012249256081        0.00000000    
  0.44338804036262069      -0.22289406006683396        0.00000000    
  0.68436221908405770      -0.31095162491498474        0.00000000    
   1.0270074583780586      -0.45348973676038840        0.00000000    
   1.5236597196107124      -0.42594013006484732        0.00000000    
   1.7901993456031180      -0.39353386783514072        0.00000000    
   2.2061175689804036        7.4603326848116616E-002   0.00000000    
   1.9542372020442380       0.38159405049476508        0.00000000    
   1.6060285498627447        3.8340048901709382E-002   0.00000000    
   1.5154413569373155       0.15382142972820259        0.00000000    
   1.3632018019409902       0.17539746123963082        0.00000000    
   1.2015646884664073       0.16657845197584004        0.00000000    
   1.0506299760384330       0.15123902873152908        0.00000000    
  0.91139979013489347       0.13697231372547361        0.00000000    
  0.78448760959406305       0.12465890648633036        0.00000000    
  0.66730231687624908       0.11475630069173588        0.00000000    
  0.55864150813323943       0.10679886556180249        0.00000000    
  0.45639691813251598       0.10062188853517531        0.00000000    
  0.35946068362512024        9.5860505518914008E-002   0.00000000    
  0.26632553709465956        9.2384208773172397E-002   0.00000000    
  0.17607146775740595        8.9977593589072896E-002   0.00000000    
   8.7579614907362144E-002   8.8593526249975976E-002   0.00000000    
   0.0000000000000000        8.8122438547878643E-002   0.00000000    
   0.0000000000000000       0.17434950076429714        0.00000000    
  -8.3555493636838313E-002  0.17518540036095015        0.00000000    
 -0.16776483674693596       0.17778530797585798        0.00000000    
 -0.25335226749103729       0.18217639832594687        0.00000000    
 -0.34093656400539746       0.18857972938721884        0.00000000    
 -0.43133992589662840       0.19713948529178299        0.00000000    
 -0.52512952075885766       0.20821282791799972        0.00000000    
 -0.62315523373049531       0.22199988893977410        0.00000000    
 -0.72569201475060163       0.23886657151171584        0.00000000    
 -0.83311494388673701       0.25852333045269077        0.00000000    
 -0.94427850198848917       0.28018872304659959        0.00000000    
  -1.0569352860607648       0.29915895765363515        0.00000000    
  -1.1645101394345549       0.30446734714985235        0.00000000    
  -1.2603689426633660       0.25713564562699248        0.00000000    
  -1.2915371339575190        4.8678038797630024E-002   0.00000000    
  -2.3965959040208613        1.4837888218860724        0.00000000    
  -2.0385286921483812      -0.67264194574256642        0.00000000    
  -1.3372242778063477      -0.70864881406939395        0.00000000    
  -1.1378227035548005      -0.94266059282975834        0.00000000    
 -0.75377600068512729      -0.82456653311484263        0.00000000    
 -0.52221855714267262      -0.65907664175020408        0.00000000    
 -0.27129461999175042      -0.39358022340725723        0.00000000    
 -0.25306099124012987      -0.27379783313471839        0.00000000    
   8.6883793806257457E-004 -0.10285692450243419        0.00000000    
 -0.15073446483249495       -5.4912179608428415E-003   0.00000000    
   1.1802035280863826E-002 -0.22548126196846721        0.00000000    
  0.17880603568294309      -0.11278693823628279        0.00000000    
  0.17906953055394842      -0.17115212656980827        0.00000000    
  0.37267704109864491      -0.20928896382061155        0.00000000    
  0.34886691402776238      -0.28811084134666909        0.00000000    
  0.52160864485051550      -0.65945075312683210        0.00000000    
  0.88135187390997460      -0.80737907685079680        0.00000000    
   1.1773772062323089      -0.86472838347742509        0.00000000    
   1.4896851764627190      -0.53359321059242570        0.00000000    
   1.5920336727656328      -0.30360405002402485        0.00000000    
   1.5970086612214807        1.0067068058995907        0.00000000    
   1.2999458597173039        5.8498747233241916E-002   0.00000000    
   1.2565121706371163       0.26768361340013491        0.00000000    
   1.1603253773262026       0.30996162587275150        0.00000000    
   1.0528680441095806       0.30110873403142019        0.00000000    
  0.94002315981895224       0.28048834339221851        0.00000000    
  0.82911761540218198       0.25785872938266396        0.00000000    
  0.72193226170131797       0.23787002506850066        0.00000000    
  0.61985400358873599       0.22080873293759895        0.00000000    
  0.52224784044083261       0.20701340520454847        0.00000000    
  0.42896566714698009       0.19593411218469317        0.00000000    
  0.33902676265768167       0.18742342086381389        0.00000000    
  0.25193934980710392       0.18104385280703369        0.00000000    
  0.16681932477089667       0.17669204392641347        0.00000000    
   8.3087838665054314E-002  0.17410241486626257        0.00000000    
   0.0000000000000000       0.17328100350175552        0.00000000    
   0.0000000000000000       0.25414837698409309        0.00000000    
  -7.6332898156782764E-002  0.25527491593251445        0.00000000    
 -0.15301867416412271       0.25859091151947372        0.00000000    
 -0.23033205775916835       0.26427160911920128        0.00000000    
 -0.30861205664407698       0.27234881399096794        0.00000000    
 -0.38792854139396177       0.28309024732684196        0.00000000    
 -0.46841261163327502       0.29653573098220060        0.00000000    
 -0.54959545602764748       0.31288554323922452        0.00000000    
 -0.63082734551300323       0.33174958771542051        0.00000000    
 -0.71016373566876256       0.35239963353844100        0.00000000    
 -0.78452444318549197       0.37183668557700117        0.00000000    
 -0.84839229188079168       0.38403562788822110        0.00000000    
 -0.89343042907894310       0.37220366748487838        0.00000000    
 -0.91275445809714384       0.30458215753600748        0.00000000    
 -0.94481121131870283        6.4456471402197194E-002   0.00000000    
  0.32501511046570591        1.3032428376225704        0.00000000    
 -0.35826858453260885      -0.16687947831484490        0.00000000    
  -1.0964419443954350       -1.1775423359171449        0.00000000    
 -0.34038277075999473       -1.4292278188220917        0.00000000    
 -0.42615454420223858      -0.63627423649474457        0.00000000    
 -0.85699490035320858      -0.64808602571147400        0.00000000    
 -0.53813160498202894      -0.97435807191603241        0.00000000    
   1.3138626187253968E-002 -0.26252384449527078        0.00000000    
 -0.47626709888044499       0.12134498279815274        0.00000000    
 -0.22837649850190211      -0.32598042281853989        0.00000000    
  -2.1059011464169164E-002 -0.27484604421120645        0.00000000    
  0.16157794045086016      -0.41306310826078968        0.00000000    
  0.43050926245961968      -0.14007077337318241        0.00000000    
  0.24643378926207918      -0.24990235431509791        0.00000000    
  0.56549979054798516      -0.54275332501392792        0.00000000    
  0.53309032100906639      -0.54514053069354240        0.00000000    
  0.38312740985434718       -1.1314696171356793        0.00000000    
  0.85278229287572216       -1.3063180584845875        0.00000000    
   1.0482518934102627      -0.59978110629915415        0.00000000    
  0.53439713678956502       0.17409010605586131        0.00000000    
  0.36502826417525158       0.69340653402463626        0.00000000    
  0.94455437863398162        8.9335706208056670E-002   0.00000000    
  0.90972309945022234       0.31511162268698761        0.00000000    
  0.89122669948274125       0.37721680986140166        0.00000000    
  0.84628897113958657       0.38624861160017659        0.00000000    
  0.78244642312189516       0.37203589812922638        0.00000000    
  0.70794435301436587       0.35171878916761151        0.00000000    
  0.62866067532619063       0.33047899667017006        0.00000000    
  0.54750570100080598       0.31143299377158262        0.00000000    
  0.46654468690767326       0.29495632160925400        0.00000000    
  0.38629415034128128       0.28152390563794766        0.00000000    
  0.30728656283746353       0.27078011940137575        0.00000000    
  0.22931259241641480       0.26274853753883459        0.00000000    
  0.15233890480578816       0.25708107183917522        0.00000000    
   7.5988282316572620E-002  0.25379549554630348        0.00000000    
   0.0000000000000000       0.25266404380108459        0.00000000    
   0.0000000000000000       0.32583407445126589        0.00000000    
  -6.7065895463884584E-002  0.32698801208375261        0.00000000    
 -0.13408154153924581       0.33057923744866935        0.00000000    
 -0.20099884614167413       0.33651397138522376        0.00000000    
 -0.26755524706951173       0.34494285153539905        0.00000000    
 -0.33345533100515290       0.35571277846567106        0.00000000    
 -0.39788389961529147       0.36882583869048746        0.00000000    
 -0.45980233274572779       0.38369671305346087        0.00000000    
 -0.51713045504712907       0.39949842968553378        0.00000000    
 -0.56698998426578995       0.41384671094043313        0.00000000    
 -0.60475940124938876       0.42251973267279924        0.00000000    
 -0.62394887652320963       0.41640990475917533        0.00000000    
 -0.61819827693892182       0.37911692822494203        0.00000000    
 -0.58071844838175612       0.27951309725442952        0.00000000    
 -0.54337761925194450        8.4241455771226173E-002   0.00000000    
 -0.47478985053314893       -5.4956237247899636E-002   0.00000000    
  0.64085393203837859       0.75895950904662579        0.00000000    
  0.71521245853602411       -1.4395664898710763        0.00000000    
 -0.46325480073275971      -0.74479557917615380        0.00000000    
 -0.86943460395792760      -0.82875489942536962        0.00000000    
 -0.66784268468917563      -0.22635692584482328        0.00000000    
 -0.98635910823447770       -1.3964340435562801        0.00000000    
  -1.2214856601977981      -0.15659155201081135        0.00000000    
 -0.42715842498886120      -0.28950881977592019        0.00000000    
 -0.10990914227111449      -0.48026650329084936        0.00000000    
   1.0404421780116368E-002 -0.44819101477782808        0.00000000    
  0.10129451081228098      -0.51324517859056296        0.00000000    
  0.22075130724957498      -0.42827682144081225        0.00000000    
  0.73620567132297621      -0.29307519706978363        0.00000000    
  0.84447479242194623      -0.92691560459601507        0.00000000    
  0.96327213384264687      -0.24736612293822188        0.00000000    
  0.83063048963629749       -1.1466394694800792        0.00000000    
  -3.7106220180593695E-002 -0.89306637929157529        0.00000000    
 -0.59007587752231794      -0.65553272863238954        0.00000000    
 -0.20157322078184581       0.35519382831772006        0.00000000    
  0.47326974588601234        6.8287177727774156E-003   0.00000000    
  0.55371363706638377       0.11594351681621777        0.00000000    
  0.58631551003226601       0.29073321829257076        0.00000000    
  0.62131598274988908       0.38509114150310353        0.00000000    
  0.62571952557629984       0.41890846547243749        0.00000000    
  0.60562110815241521       0.42331700969615249        0.00000000    
  0.56718920930420769       0.41337164655391662        0.00000000    
  0.51685780799622472       0.39844121827769741        0.00000000    
  0.45926909982240832       0.38221445466086762        0.00000000    
  0.39720706687247342       0.36719790776074596        0.00000000    
  0.33277166001219705       0.35396826291080002        0.00000000    
  0.26692182080234078       0.34319318883992922        0.00000000    
  0.20048917418676609       0.33474208513462084        0.00000000    
  0.13371896289831400       0.32883142314021246        0.00000000    
   6.6881571346684959E-002  0.32523315828384830        0.00000000    
   0.0000000000000000       0.32409623472454380        0.00000000    
   0.0000000000000000       0.38759000842881164        0.00000000    
  -5.6409051143298979E-002  0.38870702471113322        0.00000000    
 -0.11243060808823155       0.39189742783933301        0.00000000    
 -0.16756235064260844       0.39724482814908951        0.00000000    
 -0.22125145700077870       0.40445750205528874        0.00000000    
 -0.27256349478955788       0.41341024966789175        0.00000000    
 -0.32039064066927508       0.42338408197585858        0.00000000    
 -0.36286985883743844       0.43353612106432299        0.00000000    
 -0.39769657659863794       0.44181386173498477        0.00000000    
 -0.42139308478679743       0.44508731629533826        0.00000000    
 -0.42979309374449720       0.43744855325685683        0.00000000    
 -0.41831450376805129       0.40919196946983377        0.00000000    
 -0.38349041748275697       0.34576017764222305        0.00000000    
 -0.33265814620887030       0.22455774800293185        0.00000000    
 -0.29333501720904143        6.2532846889824620E-002   0.00000000    
 -0.26320089129481783      -0.13196952300227055        0.00000000    
 -0.22337464201696552      -0.31949723704676086        0.00000000    
 -0.19640437090722265      -0.46243854132160056        0.00000000    
 -0.17657493456764201      -0.56328570475031570        0.00000000    
 -0.15369792995342962      -0.62696197518326269        0.00000000    
 -0.12897614369156110      -0.65446355558545077        0.00000000    
 -0.10931622399894289      -0.66947090992931968        0.00000000    
 -0.10461613214466468      -0.65312822547021532        0.00000000    
  -8.9809433828660495E-002 -0.60210607983473674        0.00000000    
  -3.7726043389056503E-002 -0.53700191638886341        0.00000000    
  -1.1885686567541839E-003 -0.54830664046310595        0.00000000    
   3.5963949283334115E-002 -0.54117215987659684        0.00000000    
   9.9362668713485369E-002 -0.58320535602214008        0.00000000    
  0.11305512790322829      -0.66729348573981995        0.00000000    
  0.11428129023416884      -0.66219259929533503        0.00000000    
  0.13560688472964771      -0.65221206413339650        0.00000000    
  0.14972077447751955      -0.62326577376989856        0.00000000    
  0.16503631854532563      -0.56401890920113751        0.00000000    
  0.18522895852293922      -0.45180318130693120        0.00000000    
  0.22484929311204779      -0.27665871030932399        0.00000000    
  0.27535242084322625       -8.6664838001464170E-002   0.00000000    
  0.30912254425569125        9.5223057994982624E-002   0.00000000    
  0.34669133431716592       0.24128301408329797        0.00000000    
  0.39228653307497452       0.35394567423387702        0.00000000    
  0.42436004827053947       0.41357687471720062        0.00000000    
  0.43382072255006626       0.43928634359313679        0.00000000    
  0.42411014663550672       0.44554478741735060        0.00000000    
  0.39944137511219374       0.44126825024312250        0.00000000    
  0.36394343790164879       0.43247406807750738        0.00000000    
  0.32100625857621573       0.42193750661712426        0.00000000    
  0.27287461999584134       0.41179570949280420        0.00000000    
  0.22138496264149451       0.40270523881982911        0.00000000    
  0.16759354745851779       0.39545409695101985        0.00000000    
  0.11242450542708064       0.39005866464143352        0.00000000    
   5.6396103419177168E-002  0.38687171033991152        0.00000000    
   0.0000000000000000       0.38573535743208964        0.00000000    
   0.0000000000000000       0.43851128189484245        0.00000000    
  -4.5090962850706275E-002  0.43928576523686247        0.00000000    
  -8.9473750333084121E-002  0.44172303173865513        0.00000000    
 -0.13241011607343284       0.44548733254225170        0.00000000    
 -0.17293129437150140       0.45042528231608070        0.00000000    
 -0.20996116383748922       0.45578437665962135        0.00000000    
 -0.24192798138817082       0.46080391841220092        0.00000000    
 -0.26705323497222866       0.46372075637794202        0.00000000    
 -0.28282234338365519       0.46222505259159546        0.00000000    
 -0.28660531865184152       0.45215560889278267        0.00000000    
 -0.27538748482728803       0.42756243579004277        0.00000000    
 -0.24765780934241077       0.37986982147295512        0.00000000    
 -0.20492713748137600       0.29752756749003578        0.00000000    
 -0.15990897678040386       0.17693992617763435        0.00000000    
 -0.11427924167628702        2.5197804608398294E-002   0.00000000    
  -7.9909757376042181E-002 -0.15913809093800607        0.00000000    
  -7.7857999334219954E-002 -0.33420667643373181        0.00000000    
  -8.2581241833615260E-002 -0.46997613054581100        0.00000000    
  -8.6091803116083332E-002 -0.57206699058504873        0.00000000    
  -9.0178920118534123E-002 -0.63697057696100057        0.00000000    
  -9.2576478082957728E-002 -0.66677918210665543        0.00000000    
  -9.6623849392554542E-002 -0.67276783179150002        0.00000000    
  -9.8498091369148402E-002 -0.65265715348622200        0.00000000    
  -8.4355084964803859E-002 -0.63152685653930873        0.00000000    
  -4.7421929553513743E-002 -0.59659768553601256        0.00000000    
  -2.0561414963155290E-004 -0.57246466145237629        0.00000000    
   4.6552462782021638E-002 -0.60092473375944211        0.00000000    
   8.6867575783917475E-002 -0.62716661457194922        0.00000000    
  0.10303086165964441      -0.65318797225580683        0.00000000    
   9.7520549036760537E-002 -0.67201396248781475        0.00000000    
   9.3621865820975037E-002 -0.65981761222113822        0.00000000    
   9.2079704989871058E-002 -0.62823195459960934        0.00000000    
   8.5859497650132913E-002 -0.56814806510031168        0.00000000    
   7.8896374655682375E-002 -0.46090354239312692        0.00000000    
   7.6688312388553448E-002 -0.30497062154674182        0.00000000    
   8.8616068618033311E-002 -0.12078381072736170        0.00000000    
  0.12854751887655635        5.5640457047176850E-002   0.00000000    
  0.17436815366774877       0.19747619017575602        0.00000000    
  0.21710686972201551       0.30941858332673233        0.00000000    
  0.25653442720631831       0.38660289294180344        0.00000000    
  0.28204186764299083       0.43129221064995421        0.00000000    
  0.29144124872304539       0.45385011519255858        0.00000000    
  0.28637482974632994       0.46269811296564184        0.00000000    
  0.26960373257830716       0.46331323973118166        0.00000000    
  0.24374946623790383       0.45988978062702007        0.00000000    
  0.21123426250687202       0.45449027779200152        0.00000000    
  0.17380059814323912       0.44893399223636271        0.00000000    
  0.13298050142891046       0.44383685542951640        0.00000000    
   8.9815386864076530E-002  0.44001006275696652        0.00000000    
   4.5251345558166178E-002  0.43751275553593838        0.00000000    
   0.0000000000000000       0.43674176121116315        0.00000000    
   0.0000000000000000       0.47807890638611372        0.00000000    
  -3.3739247998180788E-002  0.47854835159223635        0.00000000    
  -6.6584436384049345E-002  0.47968842124929573        0.00000000    
  -9.7545500253736719E-002  0.48141937263938650        0.00000000    
 -0.12558136774020087       0.48305028800124900        0.00000000    
 -0.14936371379339547       0.48397158649134420        0.00000000    
 -0.16748656429844702       0.48270637663397570        0.00000000    
 -0.17811641238427955       0.47757339982371855        0.00000000    
 -0.17950213664765508       0.46552724181837024        0.00000000    
 -0.16965511861726390       0.44278937690138909        0.00000000    
 -0.14771660954333446       0.40377232488066539        0.00000000    
 -0.11386624036988878       0.34207988772148290        0.00000000    
  -7.3447605096102944E-002  0.25216819410431202        0.00000000    
  -3.0235503504136941E-002  0.13406903726782265        0.00000000    
   5.7935460696334545E-003  -1.3590091162070021E-002   0.00000000    
   2.3232179764498664E-002 -0.17215831316524402        0.00000000    
   2.5752540471407282E-002 -0.32575857295700900        0.00000000    
   1.0905722757248177E-002 -0.45885417381095306        0.00000000    
  -1.0748083558679374E-002 -0.55802457972287944        0.00000000    
  -3.3784891921928080E-002 -0.62388906245873010        0.00000000    
  -5.3892326050162302E-002 -0.65735570451722070        0.00000000    
  -6.7287467375033133E-002 -0.66474879674725651        0.00000000    
  -6.8609191204029765E-002 -0.65748022272545514        0.00000000    
  -6.3112868635466654E-002 -0.64634311627352103        0.00000000    
  -4.5521088707256054E-002 -0.63630636114175287        0.00000000    
   1.7322664287391840E-003 -0.62722565638754757        0.00000000    
   4.6984998112616333E-002 -0.63817454744092272        0.00000000    
   6.3077235359383685E-002 -0.64632415113960284        0.00000000    
   6.8896159333721299E-002 -0.65601264553877836        0.00000000    
   6.7208051212518077E-002 -0.66199086846134814        0.00000000    
   5.2916506469263137E-002 -0.65165047828934941        0.00000000    
   3.4010062066902026E-002 -0.61595048329877722        0.00000000    
   1.0377325362526042E-002 -0.55057659235820577        0.00000000    
  -1.4571589740908057E-002 -0.44656297703880871        0.00000000    
  -2.8389880303027165E-002 -0.30328483407409057        0.00000000    
  -1.9845974345991047E-002 -0.14294126038850438        0.00000000    
   4.0484445735030827E-003   1.3972037527821229E-002   0.00000000    
   4.2478504475594737E-002  0.15489391499940566        0.00000000    
   8.5171563734486616E-002  0.26656908318738937        0.00000000    
  0.12395822005930644       0.35123817926963946        0.00000000    
  0.15570893729974666       0.40939876664252117        0.00000000    
  0.17598062980716381       0.44607248561021962        0.00000000    
  0.18436505451180921       0.46715773681766393        0.00000000    
  0.18185785792745429       0.47813190962927749        0.00000000    
  0.17030406340229770       0.48247917159216230        0.00000000    
  0.15146378242867226       0.48325637152927631        0.00000000    
  0.12709923902313433       0.48196610626597869        0.00000000    
   9.8595737418150045E-002  0.48012833971698171        0.00000000    
   6.7242763968093297E-002  0.47823666648213820        0.00000000    
   3.4056342613452611E-002  0.47703661446908630        0.00000000    
   0.0000000000000000       0.47652559044739584        0.00000000    
   0.0000000000000000       0.50668746583995705        0.00000000    
  -2.2912034745711851E-002  0.50659107488006028        0.00000000    
  -4.4813098161233876E-002  0.50639194976062307        0.00000000    
  -6.4679245873692476E-002  0.50554305570798697        0.00000000    
  -8.1351796120845352E-002  0.50363502266400417        0.00000000    
  -9.3659205307221521E-002  0.49947660706594377        0.00000000    
 -0.10021122153885667       0.49187622279376875        0.00000000    
  -9.9742079384033719E-002  0.47856425959271476        0.00000000    
  -9.0884570746069010E-002  0.45706459767244367        0.00000000    
  -7.3012124452996569E-002  0.42353255672161844        0.00000000    
  -4.6009889197779971E-002  0.37408840072888727        0.00000000    
  -1.2276470285911740E-002  0.30418002378568881        0.00000000    
   2.5299411963107456E-002  0.21207354051485106        0.00000000    
   6.0405724073283915E-002   9.5845277152893940E-002   0.00000000    
   8.5919105480053187E-002  -3.6908762030105971E-002   0.00000000    
   9.8669730649880466E-002 -0.17902890116390324        0.00000000    