 <VTKFile type="UnstructuredGrid" version="0.1" byte_order="BigEndian">
 <UnstructuredGrid>
 <Piece NumberOfPoints="        2601 " NumberOfCells="        2500 ">
 <PointData Scalars="scalars">
 <DataArray type="Float32" NumberOfComponents="3" Name="Velocity" Format="ascii">
   0.0000000000000000        0.0000000000000000        0.00000000    
 -0.11888402385170091        0.0000000000000000        0.00000000    
 -0.23875528848682612        0.0000000000000000        0.00000000    
 -0.36001658689145394        0.0000000000000000        0.00000000    
 -0.48432918879684983        0.0000000000000000        0.00000000    
 -0.61148623969176563        0.0000000000000000        0.00000000    
 -0.74401800388130346        0.0000000000000000        0.00000000    
 -0.88090050380206619        0.0000000000000000        0.00000000    
  -1.0258313298392046        0.0000000000000000        0.00000000    
  -1.1763472236877812        0.0000000000000000        0.00000000    
  -1.3375984515576915        0.0000000000000000        0.00000000    
  -1.5038945509791186        0.0000000000000000        0.00000000    
  -1.6812840506142182        0.0000000000000000        0.00000000    
  -1.8557987350466134        0.0000000000000000        0.00000000    
  -2.0288682511435003        0.0000000000000000        0.00000000    
  -2.1829144235646734        0.0000000000000000        0.00000000    
  -2.3111082637590776        0.0000000000000000        0.00000000    
  -2.3929554203002374        0.0000000000000000        0.00000000    
  -2.4297862924507960        0.0000000000000000        0.00000000    
  -2.4086539289340583        0.0000000000000000        0.00000000    
  -3.1867760179969289        0.0000000000000000        0.00000000    
  -3.4647859569176034        0.0000000000000000        0.00000000    
  -2.1498231355323507        0.0000000000000000        0.00000000    
  -1.1888889095949087        0.0000000000000000        0.00000000    
 -0.56826834798500958        0.0000000000000000        0.00000000    
  -1.4212019977988785E-002   0.0000000000000000        0.00000000    
  0.51447754395896106        0.0000000000000000        0.00000000    
   1.1184485788970997        0.0000000000000000        0.00000000    
   1.9323388704456728        0.0000000000000000        0.00000000    
   3.2164913578147387        0.0000000000000000        0.00000000    
   3.1474597092090750        0.0000000000000000        0.00000000    
   2.4162179131644907        0.0000000000000000        0.00000000    
   2.4404672772340059        0.0000000000000000        0.00000000    
   2.4140363691329498        0.0000000000000000        0.00000000    
   2.3267789073140959        0.0000000000000000        0.00000000    
   2.1920418375388309        0.0000000000000000        0.00000000    
   2.0201875991844713        0.0000000000000000        0.00000000    
   1.8380683372009323        0.0000000000000000        0.00000000    
   1.6565520410190413        0.0000000000000000        0.00000000    
   1.4805240274769049        0.0000000000000000        0.00000000    
   1.3143528693592352        0.0000000000000000        0.00000000    
   1.1564599189289653        0.0000000000000000        0.00000000    
   1.0077070734140923        0.0000000000000000        0.00000000    
  0.86599624810454989        0.0000000000000000        0.00000000    
  0.73110748110853363        0.0000000000000000        0.00000000    
  0.60132441773470247        0.0000000000000000        0.00000000    
  0.47610592862361778        0.0000000000000000        0.00000000    
  0.35413594984533486        0.0000000000000000        0.00000000    
  0.23476338914004230        0.0000000000000000        0.00000000    
  0.11696094290997665        0.0000000000000000        0.00000000    
   0.0000000000000000        0.0000000000000000        0.00000000    
   0.0000000000000000       0.11796714668299893        0.00000000    
 -0.11738225339675040       0.11829913056327571        0.00000000    
 -0.23540620708033785       0.11959608775326126        0.00000000    
 -0.35531377359652033       0.12157277716537224        0.00000000    
 -0.47717054298118400       0.12459659412251421        0.00000000    
 -0.60294302187679982       0.12833293566584170        0.00000000    
 -0.73201148432860164       0.13326729097333154        0.00000000    
 -0.86728923778863143       0.13889296240529272        0.00000000    
  -1.0071077605591219       0.14585638640018628        0.00000000    
  -1.1556224169844387       0.15317416387156318        0.00000000    
  -1.3091273931265441       0.16158204013834682        0.00000000    
  -1.4731597117595141       0.16874637791397076        0.00000000    
  -1.6392595758797497       0.17474298583937245        0.00000000    
  -1.8131311524534930       0.17364327516486294        0.00000000    
  -1.9749467687674307       0.16124185724426951        0.00000000    
  -2.1226809702454199       0.14053851665346034        0.00000000    
  -2.2399980728348816       0.10497242612936838        0.00000000    
  -2.3195373217116591        5.6413979287985416E-002   0.00000000    
  -2.3447740495324378        5.6536206832567271E-003   0.00000000    
  -2.5113132859873533       0.13975325225507051        0.00000000    
  -2.9430883976019815        1.0701439484337816        0.00000000    
  -2.4942763958628760       -1.2409460111925625        0.00000000    
  -1.6614003650137268      -0.90689284098409628        0.00000000    
  -1.0431470758467165      -0.67229467406106913        0.00000000    
 -0.44405607586691392      -0.54741688747083361        0.00000000    
  -1.5184163407709653E-003 -0.44917710000286160        0.00000000    
  0.42205327255692571      -0.50308415277406915        0.00000000    
  0.95609674157182900      -0.63493035111924545        0.00000000    
   1.5777187343887069      -0.80058193318880544        0.00000000    
   2.2217426969801264       -1.1275945167117247        0.00000000    
   2.6047494136033569       0.81361944874996273        0.00000000    
   2.4607746556224543        6.1597105290562351E-002   0.00000000    
   2.3692690612660852        5.6591249963751757E-003   0.00000000    
   2.3378168054090880        5.2224038961461966E-002   0.00000000    
   2.2607600550327813       0.11209017323294498        0.00000000    
   2.1256725666855663       0.15773438488823927        0.00000000    
   1.9644967176981689       0.17529570245195278        0.00000000    
   1.7911878012915270       0.18013247593644136        0.00000000    
   1.6167941829969017       0.17577743853814135        0.00000000    
   1.4491154138204041       0.16792934417847136        0.00000000    
   1.2880047912030104       0.15935243655451475        0.00000000    
   1.1357301995082316       0.15081510556842295        0.00000000    
  0.99044399561656926       0.14322394383597828        0.00000000    
  0.85245723687913311       0.13647364020885258        0.00000000    
  0.72002777650979111       0.13084458715434935        0.00000000    
  0.59283317529872348       0.12613307742838820        0.00000000    
  0.46948926172679023       0.12242932525246497        0.00000000    
  0.34945972885430698       0.11957018639613590        0.00000000    
  0.23166420566717200       0.11759789749412417        0.00000000    
  0.11546704426557775       0.11640171013536774        0.00000000    
   0.0000000000000000       0.11602627703801845        0.00000000    
   0.0000000000000000       0.23271436257195893        0.00000000    
 -0.11268229063960654       0.23361645870848843        0.00000000    
 -0.22613872858707185       0.23575915123691424        0.00000000    
 -0.34059734287846583       0.23977589448711503        0.00000000    
 -0.45741460232514319       0.24506750562992324        0.00000000    
 -0.57621072161042008       0.25243062233714975        0.00000000    
 -0.69903630144251483       0.26106364658373099        0.00000000    
 -0.82468023049431483       0.27201828930455801        0.00000000    
 -0.95606272008208737       0.28393207185700209        0.00000000    
  -1.0905904713935661       0.29814088614940348        0.00000000    
  -1.2322649318710330       0.31179475447792221        0.00000000    
  -1.3758301915644382       0.32613124189869369        0.00000000    
  -1.5266274963318336       0.33425529074019844        0.00000000    
  -1.6736864683193138       0.33506151882333490        0.00000000    
  -1.8248795395835815       0.31283230116214333        0.00000000    
  -1.9450179809398018       0.25682071556826708        0.00000000    
  -2.0327863927670577       0.19377574163012140        0.00000000    
  -2.0670790213066677        8.1442541203003052E-002   0.00000000    
  -2.1412381677934116        8.0020933075702336E-002   0.00000000    
  -2.6163586772404450       0.70704568579157701        0.00000000    
  -1.5353222402597759      -0.14640981040704742        0.00000000    
 -0.67864386130786825       -1.3298826329870721        0.00000000    
 -0.90649044159712144       -1.4229856696887850        0.00000000    
 -0.45844596912710006       -1.2224996069370329        0.00000000    
 -0.21116360357949401      -0.84358532006136955        0.00000000    
  -9.6029894477881531E-003 -0.79710694101410462        0.00000000    
  0.26873633155827109      -0.85706532160513682        0.00000000    
  0.51207085463827740       -1.0583271743274885        0.00000000    
  0.82018770755722281       -1.3069239556540417        0.00000000    
  0.72587707603092044       -1.1709658252572941        0.00000000    
   1.1369896262171133        6.2871490550445705E-002   0.00000000    
   2.0873907376430640        5.9187100952623542E-003   0.00000000    
   2.1595836979080061        8.0650154366433427E-002   0.00000000    
   2.0933793754722134        7.4889587883945730E-002   0.00000000    
   2.0424650943430844       0.21739565581469764        0.00000000    
   1.9357567560018456       0.29422472899362845        0.00000000    
   1.8010716976154919       0.33466626571863428        0.00000000    
   1.6524997595061028       0.34264276718390879        0.00000000    
   1.5040920175649941       0.33606850752442308        0.00000000    
   1.3560422695508796       0.32336679238074034        0.00000000    
   1.2130247505665981       0.30804312995181826        0.00000000    
   1.0741721466379539       0.29325160779241083        0.00000000    
  0.94096340837490411       0.27928238376455250        0.00000000    
  0.81218013591905658       0.26718523147140177        0.00000000    
  0.68808361084474945       0.25665898133328130        0.00000000    
  0.56754042442276920       0.24805647088033281        0.00000000    
  0.45033565337802567       0.24105461641502235        0.00000000    
  0.33551974104105969       0.23579034044085395        0.00000000    
  0.22267207037654349       0.23202093729888082        0.00000000    
  0.11101201504744357       0.22983588705912886        0.00000000    
   0.0000000000000000       0.22907115942510195        0.00000000    
   0.0000000000000000       0.34176333502414208        0.00000000    
 -0.10532943612462893       0.34257921301834615        0.00000000    
 -0.21094713757043959       0.34587053631814257        0.00000000    
 -0.31762378048172807       0.35079976660636975        0.00000000    
 -0.42511058670223856       0.35834769917567111        0.00000000    
 -0.53466502818326511       0.36750098955550065        0.00000000    
 -0.64534195610645873       0.37949578711849069        0.00000000    
 -0.75891714073535510       0.39280526244828584        0.00000000    
 -0.87340045493842366       0.40901090250195116        0.00000000    
 -0.99111613262032539       0.42530548449562644        0.00000000    
  -1.1083423630435416       0.44353084703024681        0.00000000    
  -1.2280397250393029       0.45765777103334176        0.00000000    
  -1.3435119279360537       0.46899826926761951        0.00000000    
  -1.4593613594576247       0.46322694380281870        0.00000000    
  -1.5621107216621708       0.43860930964953171        0.00000000    
  -1.6655687004950652       0.35464012726803568        0.00000000    
  -1.7013065705267245       0.21946261178782844        0.00000000    
  -1.7516229533498808       0.14036468240740321        0.00000000    
  -1.8090797933976370       0.15271477847431242        0.00000000    
 -0.79873267519559565        9.9125231697276384E-002   0.00000000    
 -0.32852345425206037       -1.0897350141802582        0.00000000    
 -0.34196496200012794       -1.2297943003559688        0.00000000    
  0.11265907418424245       -1.7498514581597482        0.00000000    
  -5.5135579183379817E-003  -1.2255056587713804        0.00000000    
   3.5357564211084898E-003  -1.0969109480593833        0.00000000    
  0.10147782866484438      -0.84328399932876141        0.00000000    
  -9.4136765356797672E-003 -0.97833607904194320        0.00000000    
  0.11780223565616635       -1.3076068520987236        0.00000000    
  0.18607193323866006       -1.4340308283310321        0.00000000    
  0.26805690569335261       -1.0315332934428245        0.00000000    
  0.78323503375688996       -1.0028517194629405        0.00000000    
   1.1635115162054583      -0.25903567369273545        0.00000000    
   1.4760599389715463       -3.9136844830301470E-002   0.00000000    
   1.6785584372889180        5.8382411277268724E-002   0.00000000    
   1.6876602199120816       0.27571533092634848        0.00000000    
   1.6309504300540729       0.39932318207960221        0.00000000    
   1.5401041984848720       0.45509910258627512        0.00000000    
   1.4398485768511926       0.47103749005732265        0.00000000    
   1.3277431626588410       0.46818694078238143        0.00000000    
   1.2125862553547673       0.45445501443885072        0.00000000    
   1.0949538283788982       0.43760485385171177        0.00000000    
  0.97820861082899313       0.41928770536890630        0.00000000    
  0.86238116651296381       0.40228246876496504        0.00000000    
  0.74878285313683224       0.38656673230078997        0.00000000    
  0.63701067540104084       0.37314618331181099        0.00000000    
  0.52745330247562605       0.36166982824701444        0.00000000    
  0.41957351741795529       0.35252581514857079        0.00000000    
  0.31332980233366525       0.34537876912637727        0.00000000    
  0.20819276589059113       0.34041721571876282        0.00000000    
  0.10390562464234226       0.33738680521441033        0.00000000    
   0.0000000000000000       0.33643788095742105        0.00000000    
   0.0000000000000000       0.44187030713499437        0.00000000    
  -9.5489717921865960E-002  0.44329139495178860        0.00000000    
 -0.19121307969777834       0.44649941760421658        0.00000000    
 -0.28696475449219616       0.45259920302380752        0.00000000    
 -0.38333323559426397       0.46040355007859690        0.00000000    
 -0.47953507671624845       0.47120142125339659        0.00000000    
 -0.57643406528286179       0.48337127190817725        0.00000000    
 -0.67241587323665042       0.49848677023910193        0.00000000    
 -0.76848604297423029       0.51388287864954663        0.00000000    
 -0.86175839020379619       0.53142153325732699        0.00000000    
 -0.95313035984013095       0.54601299832584271        0.00000000    
  -1.0377555535809742       0.55949817547219349        0.00000000    
  -1.1160946728712395       0.56096918701349929        0.00000000    
  -1.1802386765593151       0.55124946126444230        0.00000000    
  -1.2297287359245519       0.50282621375533110        0.00000000    
  -1.2502663839205883       0.41441884998899348        0.00000000    
  -1.1969068730731551       0.14206224824864749        0.00000000    
  -1.1674964395127585       0.23867099520766971        0.00000000    
 -0.82758842806696520      -0.22804270566473045        0.00000000    
 -0.45478957346082266      -0.90326325691461828        0.00000000    
   2.8576340968953822E-002  -1.0409216608800758        0.00000000    
  0.30757664067045787       -1.5441664455544437        0.00000000    
 -0.10957085086863964       -1.4729558575434614        0.00000000    
  0.33383399082982873       -1.8276334689298128        0.00000000    
  0.46496838220481146      -0.63496684355150157        0.00000000    
 -0.30332149005113207      -0.63488030377188065        0.00000000    
  -4.3394860711223164E-002  -1.3357748986733664        0.00000000    
  0.18783343037558656       -1.3086122356938767        0.00000000    
  -8.2759574710054851E-002  -1.2307021371661329        0.00000000    
  0.13407987925074583       -1.5336864109723536        0.00000000    
  0.29387002054354866       -1.1756668712195706        0.00000000    
  0.90742587962681909       -1.0800528634200033        0.00000000    
   1.3458442086907698        3.0913593141421447E-002   0.00000000    
   1.1230832130244726        8.5944707011603606E-003   0.00000000    
   1.1928413941931892       0.24664330770553383        0.00000000    
   1.2367697666866679       0.44117662266259855        0.00000000    
   1.2215185973282816       0.51934306292866761        0.00000000    
   1.1736172358860077       0.55495051278866825        0.00000000    
   1.1090062338723290       0.56099033425487332        0.00000000    
   1.0310925501938659       0.55472221194669924        0.00000000    
  0.94568439615681343       0.54037823735458923        0.00000000    
  0.85487547817310372       0.52406845739744867        0.00000000    
  0.76142944467711604       0.50677519454624254        0.00000000    
  0.66625057070296723       0.49085119386759696        0.00000000    
  0.57062611480732550       0.47625835537423972        0.00000000    
  0.47479264790849746       0.46394849600663374        0.00000000    
  0.37927674301124770       0.45364283734167571        0.00000000    
  0.28401491147884855       0.44576729354776851        0.00000000    
  0.18914182375560534       0.44003881546149409        0.00000000    
   9.4492095106078269E-002  0.43670207536726130        0.00000000    
   0.0000000000000000       0.43552033055079675        0.00000000    
   0.0000000000000000       0.53186035926772557        0.00000000    
  -8.3913870859771270E-002  0.53270493159848276        0.00000000    
 -0.16757605762482736       0.53647142949628635        0.00000000    
 -0.25102994691027819       0.54183275520938534        0.00000000    
 -0.33357969309267377       0.55008822517528344        0.00000000    
 -0.41541550918917974       0.55955440337296714        0.00000000    
 -0.49519310177520698       0.57169487093905258        0.00000000    
 -0.57303360652438828       0.58398548390894456        0.00000000    
 -0.64663663340266209       0.59805736159336553        0.00000000    
 -0.71566665080675507       0.60954941494488735        0.00000000    
 -0.77643642744445474       0.62002686291012177        0.00000000    
 -0.82739714228911332       0.62107021947108265        0.00000000    
 -0.86298638135498196       0.61332550136852404        0.00000000    
 -0.87845876188864336       0.57850953112869152        0.00000000    
 -0.86642028856590825       0.51301772993124628        0.00000000    
 -0.80561230078160717       0.36395699402194220        0.00000000    
 -0.72573955110643984        5.9291843690119042E-002   0.00000000    
 -0.41338301636157376       -2.0325568658894743E-002   0.00000000    
 -0.12267367144057173      -0.59966349811614594        0.00000000    
 -0.28110084648176648      -0.74601414396565091        0.00000000    
 -0.17724477556754625       -1.7853927591184620        0.00000000    
  0.10414773848935410       -1.3600881610113020        0.00000000    
  0.14269525854449874       -1.2784341705488349        0.00000000    
 -0.52102522072176349       -1.8018395182911522        0.00000000    
 -0.62787599959195206      -0.68504440664385269        0.00000000    
  0.39116646589110915      -0.83555533384152736        0.00000000    
  0.55510015188090145       -1.5589601838830032        0.00000000    
  0.35758807212693278       -1.1191431617494589        0.00000000    
  0.30889534101369709       -1.1008854748610513        0.00000000    
 -0.23899514874750633       -1.3324520374079318        0.00000000    
  0.56261312185361223       -2.3382996566290752        0.00000000    
  0.78412692209122936      -0.75248973725884194        0.00000000    
  0.16621472203120655      -0.11715566197771651        0.00000000    
  0.65514860790784446      -0.10950916431611990        0.00000000    
  0.77531829530647089       0.17481907415346351        0.00000000    
  0.84021383785851389       0.40417694116636416        0.00000000    
  0.88229336080967569       0.52951439082960039        0.00000000    
  0.88818768041020701       0.58678622672710667        0.00000000    
  0.86837419857143106       0.61357910416658301        0.00000000    
  0.82960177924198852       0.61881954504062764        0.00000000    
  0.77690992091148181       0.61438091662597660        0.00000000    
  0.71441743985539807       0.60336717716362331        0.00000000    
  0.64484604882406094       0.59049389930517271        0.00000000    
  0.57051881303693475       0.57663859886772417        0.00000000    
  0.49280357129184460       0.56381064801263359        0.00000000    
  0.41294204181725563       0.55209119973944698        0.00000000    
  0.33157023705716260       0.54238784326399991        0.00000000    
  0.24931717759265865       0.53453717862014283        0.00000000    
  0.16646258081652693       0.52899661488629202        0.00000000    
   8.3308906881997463E-002  0.52554767852431716        0.00000000    
   0.0000000000000000       0.52447572937961451        0.00000000    
   0.0000000000000000       0.60907113947315317        0.00000000    
  -7.1008208708838422E-002  0.61041623095944975        0.00000000    
 -0.14162006066402569       0.61303416885333761        0.00000000    
 -0.21115437712078622       0.61825822159233679        0.00000000    
 -0.27931818847607154       0.62437631632777491        0.00000000    
 -0.34496163042121264       0.63274557025991818        0.00000000    
 -0.40765850037410500       0.64097816658876394        0.00000000    
 -0.46556800451600938       0.65045219714811442        0.00000000    
 -0.51775058124184725       0.65737625195602023        0.00000000    
 -0.56141970403976571       0.66292966478203297        0.00000000    
 -0.59444221537815589       0.66043890104672431        0.00000000    
 -0.61294251693638402       0.65011919773512505        0.00000000    
 -0.61220990169573997       0.61913314692725130        0.00000000    
 -0.58811884908293033       0.56408321348847401        0.00000000    
 -0.52995970238259793       0.45724642754564926        0.00000000    
 -0.44620439031111897       0.27516499654906718        0.00000000    
 -0.35974947795827805       -1.8243820868935692E-002   0.00000000    
 -0.28014953190267133      -0.33474638490430353        0.00000000    
 -0.16722813818262439      -0.68887342044617761        0.00000000    
   9.5057591565950922E-002 -0.76066277629125345        0.00000000    
  -9.2408577124851871E-002  -1.6871340289523833        0.00000000    
 -0.47877179459315194       -1.3533761877121029        0.00000000    
 -0.41796482374421190       -1.3845006347018456        0.00000000    
 -0.19938464360863845       -1.2506327549557346        0.00000000    
  -3.7473026523258741E-002  -1.2913120081244971        0.00000000    
   5.9979474763980330E-003  -1.2918011718324125        0.00000000    
   3.9419265229945710E-002  -1.3000693495630153        0.00000000    
  0.14325611358937410       -1.2843587646412051        0.00000000    
  0.46422094366771149       -1.2079419708660666        0.00000000    
  0.89980611530954513       -1.1130902232452360        0.00000000    
  -3.8923949996860628E-002  -2.4205396760153457        0.00000000    
 -0.56695197491736049      -0.36373549314324516        0.00000000    
  0.15102338680408667      -0.60597306768048154        0.00000000    
  0.29257112375878541      -0.25117338141488160        0.00000000    
  0.40327981468534085        8.5604912921578957E-002   0.00000000    
  0.49636468408075612       0.33541069044774446        0.00000000    
  0.56573122231665229       0.48683458035845906        0.00000000    
  0.61165381651473494       0.57764912339714181        0.00000000    
  0.62862503357974220       0.62555847226792316        0.00000000    
  0.62413127382145184       0.65010635602469802        0.00000000    
  0.60182790702396161       0.65808933076761378        0.00000000    
  0.56630012231961302       0.65767902878016060        0.00000000    
  0.52054110286108257       0.65151245817625514        0.00000000    
  0.46721983816182394       0.64326854048079463        0.00000000    
  0.40826149050612981       0.63385429579811992        0.00000000    
  0.34517159791311453       0.62499897401934590        0.00000000    
  0.27911380782590234       0.61690966382918822        0.00000000    
  0.21093994343733560       0.61044228190581329        0.00000000    
  0.14135525965315018       0.60553079215872618        0.00000000    
   7.0884553057879621E-002  0.60263788177947286        0.00000000    
   0.0000000000000000       0.60157898606212568        0.00000000    
   0.0000000000000000       0.67383231674961586        0.00000000    
  -5.7516813885663473E-002  0.67418007627526211        0.00000000    
 -0.11429071922888118       0.67665608083371231        0.00000000    
 -0.16968493228761730       0.67956483912521959        0.00000000    
 -0.22266815738490756       0.68421673524525539        0.00000000    
 -0.27248710440847590       0.68836754030888947        0.00000000    
 -0.31765146849826298       0.69321743058026086        0.00000000    
 -0.35697386864377478       0.69544483744174812        0.00000000    
 -0.38836470374344301       0.69595702348567468        0.00000000    
 -0.40971229114919455       0.68936560345371689        0.00000000    
 -0.41837550531223588       0.67568868787422964        0.00000000    
 -0.41057404014265558       0.64556824729384943        0.00000000    
 -0.38408157507380325       0.59645901705671922        0.00000000    
 -0.33283232811009050       0.51141704377988206        0.00000000    
 -0.26132437141301590       0.38024549385433287        0.00000000    
 -0.17249644268527747       0.17958268943811351        0.00000000    
  -9.7401192431549072E-002  -8.4211676367501653E-002   0.00000000    
  -4.4340828360645186E-002 -0.40143883953522425        0.00000000    
  -3.8641308325631799E-002 -0.74080187957512522        0.00000000    
  -2.7004964940915779E-002 -0.98265639029635765        0.00000000    
  -3.9105521136336314E-002  -1.2655736900244194        0.00000000    
  -6.5481950383347656E-002  -1.3621968798590269        0.00000000    
  -7.2126863716081915E-002  -1.4298420000335053        0.00000000    
  -7.9733463505289245E-002  -1.4162649699219545        0.00000000    
  -3.2952961394687612E-002  -1.3343719123542752        0.00000000    
   4.5835592018614261E-003  -1.3297487621988280        0.00000000    
   4.5183665404028711E-002  -1.3361431831523083        0.00000000    
   9.1565639324578021E-002  -1.3985037533319269        0.00000000    
   8.6991822270251512E-002  -1.4101879951597958        0.00000000    
   8.1058180196864574E-002  -1.3404957284770480        0.00000000    
   6.7724153907095200E-002  -1.2410700791373195        0.00000000    
   4.8029487186648727E-002 -0.99548239830735286        0.00000000    
   4.1871919045874950E-002 -0.68604395609875723        0.00000000    
   5.9084035974665987E-002 -0.32986234688439797        0.00000000    
  0.12091531180613263       -8.2460883701478537E-003   0.00000000    
  0.21195139589630999       0.24514073825078508        0.00000000    
  0.29989715525442834       0.41979223495869433        0.00000000    
  0.36398532484108376       0.53468070500960363        0.00000000    
  0.40752478808962095       0.60801621033949049        0.00000000    
  0.42839848048612217       0.65126868531255111        0.00000000    
  0.43162670412530119       0.67600214463576203        0.00000000    
  0.41946639134883129       0.68745431239054233        0.00000000    
  0.39554325181620670       0.69141933355476881        0.00000000    
  0.36204873653799380       0.69017744507750090        0.00000000    
  0.32132197931075374       0.68663049608211135        0.00000000    
  0.27494636062572042       0.68168828501116985        0.00000000    
  0.22439223044013401       0.67683227310793892        0.00000000    
  0.17074203456196221       0.67234373289157834        0.00000000    
  0.11495369926457147       0.66900236025231841        0.00000000    
   5.7804032462270193E-002  0.66678668708123368        0.00000000    
   0.0000000000000000       0.66611876627829769        0.00000000    
   0.0000000000000000       0.72436505954513519        0.00000000    
  -4.3907412425743114E-002  0.72507155978892157        0.00000000    
  -8.6941563373719249E-002  0.72557265360900758        0.00000000    
 -0.12811380719857807       0.72721472323129888        0.00000000    
 -0.16647989718409634       0.72791616621972888        0.00000000    
 -0.20079239460935630       0.72879955378102701        0.00000000    
 -0.22979044934725978       0.72694783593353396        0.00000000    
 -0.25188995629233119       0.72313633917683739        0.00000000    
 -0.26518711945118689       0.71295352000679268        0.00000000    
 -0.26788263938002888       0.69641221426495670        0.00000000    
 -0.25706394913766617       0.66648660098128842        0.00000000    
 -0.23153781468661047       0.62144273456387578        0.00000000    
 -0.18745885496890904       0.55001310499764366        0.00000000    
 -0.12771361542556642       0.44686846932951985        0.00000000    
  -5.1707922533443043E-002  0.29728041871278943        0.00000000    
   2.3743079965321819E-002   9.8268833350562509E-002   0.00000000    