 <VTKFile type="UnstructuredGrid" version="0.1" byte_order="BigEndian">
 <UnstructuredGrid>
 <Piece NumberOfPoints="        2601 " NumberOfCells="        2500 ">
 <PointData Scalars="scalars">
 <DataArray type="Float32" NumberOfComponents="3" Name="Velocity" Format="ascii">
   0.0000000000000000        0.0000000000000000        0.00000000    
  -6.5384884260986639E-002   0.0000000000000000        0.00000000    
 -0.13228956583390022        0.0000000000000000        0.00000000    
 -0.20352187618184589        0.0000000000000000        0.00000000    
 -0.28018128412703097        0.0000000000000000        0.00000000    
 -0.37008331267400202        0.0000000000000000        0.00000000    
 -0.47249546353942434        0.0000000000000000        0.00000000    
 -0.65201938005756321        0.0000000000000000        0.00000000    
 -0.92774012295801833        0.0000000000000000        0.00000000    
  -1.9226102275321850        0.0000000000000000        0.00000000    
  -2.3846366655536904        0.0000000000000000        0.00000000    
  -1.6824442497328438        0.0000000000000000        0.00000000    
  -1.9038563847727534        0.0000000000000000        0.00000000    
  -1.5150542082868079        0.0000000000000000        0.00000000    
 -0.89005210773078458        0.0000000000000000        0.00000000    
  -1.0343326049856256        0.0000000000000000        0.00000000    
 -0.81231728519046609        0.0000000000000000        0.00000000    
 -0.81456404796810944        0.0000000000000000        0.00000000    
 -0.80508867948242835        0.0000000000000000        0.00000000    
 -0.44220849002288937        0.0000000000000000        0.00000000    
 -0.36735675918148886        0.0000000000000000        0.00000000    
 -0.53125517091444219        0.0000000000000000        0.00000000    
 -0.15170831216935568        0.0000000000000000        0.00000000    
 -0.23775077262909255        0.0000000000000000        0.00000000    
 -0.20707733390822711        0.0000000000000000        0.00000000    
  0.28064991761941355        0.0000000000000000        0.00000000    
   1.5305116635784804E-003   0.0000000000000000        0.00000000    
  -9.5343425894587636E-002   0.0000000000000000        0.00000000    
  -1.3265666297983428E-002   0.0000000000000000        0.00000000    
 -0.13531073826826912        0.0000000000000000        0.00000000    
  0.17264173904002764        0.0000000000000000        0.00000000    
  0.59085813729820702        0.0000000000000000        0.00000000    
  0.70606166421654382        0.0000000000000000        0.00000000    
  0.72071581386234407        0.0000000000000000        0.00000000    
  0.77980521427859995        0.0000000000000000        0.00000000    
  0.76191941157989729        0.0000000000000000        0.00000000    
  0.92731158214708853        0.0000000000000000        0.00000000    
   1.0193458097824852        0.0000000000000000        0.00000000    
   1.2100105598721473        0.0000000000000000        0.00000000    
   1.0743965675679676        0.0000000000000000        0.00000000    
   1.9573827163510549        0.0000000000000000        0.00000000    
   2.0951024467277870        0.0000000000000000        0.00000000    
  0.84554211550622460        0.0000000000000000        0.00000000    
  0.66636514508030209        0.0000000000000000        0.00000000    
  0.49092066076429908        0.0000000000000000        0.00000000    
  0.38302520321088845        0.0000000000000000        0.00000000    
  0.28889737636335477        0.0000000000000000        0.00000000    
  0.20957937477382660        0.0000000000000000        0.00000000    
  0.13593115368088557        0.0000000000000000        0.00000000    
   6.7185304407950189E-002   0.0000000000000000        0.00000000    
   0.0000000000000000        0.0000000000000000        0.00000000    
   0.0000000000000000        6.3901650708952651E-002   0.00000000    
  -6.3307016051847909E-002   6.4790249601952676E-002   0.00000000    
 -0.12832857319118077        6.7135989108343064E-002   0.00000000    
 -0.19612293085297075        7.1890678899391644E-002   0.00000000    
 -0.27025408405637502        7.8899882247120898E-002   0.00000000    
 -0.35134479701170435        9.2092859252962983E-002   0.00000000    
 -0.45093753816583015       0.10991203276418610        0.00000000    
 -0.56236506470066894       0.18103941028586454        0.00000000    
 -0.68300750974022983       0.21532377765017222        0.00000000    
 -0.52665159906388526       0.62319041625620553        0.00000000    
 -0.69467395472956983        6.8583774571474299E-003   0.00000000    
  -1.8550946243569282       0.45136987638318748        0.00000000    
  -1.5667383087801598      -0.51831405688830623        0.00000000    
 -0.95714406033187738      -0.48008236801498522        0.00000000    
 -0.95042125638310004      -0.15164253645913178        0.00000000    
 -0.70865914427825138        5.4160921639235089E-002   0.00000000    
 -0.99743884992607224        1.2603464242398410E-002   0.00000000    
 -0.72535055703018614      -0.28244499433213710        0.00000000    
 -0.46680363541281850        1.4422704256654605E-002   0.00000000    
 -0.75743951106779006       -8.6667018034369450E-002   0.00000000    
 -0.35957074528971295      -0.38605347855914290        0.00000000    
  -3.1649896753531984E-002  0.22203104178134092        0.00000000    
 -0.71398249979407780        8.0754702538679973E-002   0.00000000    
 -0.18191850837769391      -0.52677623347106506        0.00000000    
  0.25280233407710795        6.1381952319547739E-002   0.00000000    
 -0.34528235088377363        4.8975481137335686E-002   0.00000000    
  0.18183357388834243      -0.29697199992919054        0.00000000    
  0.27188727986115829       0.30379223153903662        0.00000000    
 -0.29651728121819904       0.18253456996929407        0.00000000    
   3.4668697958320380E-002 -0.39167547714862139        0.00000000    
  0.38473525056017077      -0.26634355273374938        0.00000000    
  0.40623829000921535      -0.17337588494408723        0.00000000    
  0.64894440962101918      -0.18453376155604195        0.00000000    
  0.75320936116837234        6.5614660394422292E-002   0.00000000    
  0.58136483121224491        4.7140469177677738E-002   0.00000000    
  0.72079370977373947      -0.16868354500665422        0.00000000    
  0.89383348555048059      -0.16974840130252031        0.00000000    
  0.99618273402236579       -2.4635074768939644E-002   0.00000000    
  0.92816873887432128       -9.8015680135187508E-002   0.00000000    
   1.1675158934475054       -5.7174820975032861E-003   0.00000000    
  0.82197715579651498      -0.53172992899519977        0.00000000    
  0.41383021487980420       0.80215713956550305        0.00000000    
  0.71108855931959702       0.15014484723012395        0.00000000    
  0.56972508197293048       0.17039560053971275        0.00000000    
  0.46121580115008004       0.11355816459646660        0.00000000    
  0.36007781106030073        9.5475283044419046E-002   0.00000000    
  0.27719023959787986        8.1540115263367283E-002   0.00000000    
  0.20086775502281237        7.4100370899184129E-002   0.00000000    
  0.13146764658428958        6.8947958630299552E-002   0.00000000    
   6.4782800137556648E-002   6.6482737087435476E-002   0.00000000    
   0.0000000000000000        6.5485367456157142E-002   0.00000000    
   0.0000000000000000       0.12428692196441370        0.00000000    
  -5.7771064852847845E-002  0.12548305924927186        0.00000000    
 -0.11630356353197085       0.12999723527754176        0.00000000    
 -0.17689629909680193       0.13741652595484047        0.00000000    
 -0.23981369448728532       0.15042258378350479        0.00000000    
 -0.30654205739458257       0.16838923357707319        0.00000000    
 -0.37699603348989275       0.20366237568716100        0.00000000    
 -0.42848367866763848       0.25020423907313744        0.00000000    
 -0.45304804628009049       0.29136576151224547        0.00000000    
 -0.41332035160054953       0.35106482703482339        0.00000000    
 -0.28909029752093285       0.32277626831174089        0.00000000    
  0.35197749727530958       0.65480486038951558        0.00000000    
  0.12113056142197288      -0.77925842058771633        0.00000000    
 -0.58003557710193088      -0.12756611420758690        0.00000000    
 -0.74355096248912733      -0.34736620879716545        0.00000000    
 -0.78760742530844097        5.2178944721073338E-002   0.00000000    
 -0.42165695574752987       -6.2585322722706033E-002   0.00000000    
 -0.48584123026471898      -0.41516022571776923        0.00000000    
 -0.56402806172859499       -3.3222154483565185E-002   0.00000000    
 -0.27746237449066968       -3.4951970850168969E-002   0.00000000    
 -0.52270519501091228      -0.59039447097490594        0.00000000    
 -0.58049630800185970       0.15624229867649403        0.00000000    
   9.0806454730073774E-002  0.15757328597702422        0.00000000    
 -0.20963418574212209      -0.83521816782960911        0.00000000    
 -0.47316576348704453       0.19863462199163012        0.00000000    
   5.8014675908850483E-002  -2.1372942945076159E-002   0.00000000    
 -0.14829204834593274      -0.54743277634147769        0.00000000    
  -1.1612400030366335E-002  0.32751965368778285        0.00000000    
  0.69366963483424859        2.1929674060629626E-002   0.00000000    
  0.62111124606236168      -0.48969817161847951        0.00000000    
  0.32245773092332974      -0.21973389569780319        0.00000000    
  0.29431328735315654      -0.21334413783020897        0.00000000    
  0.20175231838470795      -0.29471065928240625        0.00000000    
  0.29455263167152040       -2.1273706682958558E-002   0.00000000    
  0.59229313875347700        8.1328591622519524E-003   0.00000000    
  0.68767063207060763      -0.36448230683670030        0.00000000    
  0.69163151046244142      -0.15095029360579637        0.00000000    
  0.67166928365429002      -0.12582020409316438        0.00000000    
  0.68756066173249941        5.5292066294657223E-002   0.00000000    
  0.50941593539344487      -0.22022765671987385        0.00000000    
  0.29353778473791209       0.24419713396625808        0.00000000    
  0.38262896956592757       0.34528583274212560        0.00000000    
  0.43864651197386495       0.25374026720114828        0.00000000    
  0.41471708904303334       0.23209308084311184        0.00000000    
  0.37173556081286074       0.20335149334379474        0.00000000    
  0.30714707634080884       0.17140842885661658        0.00000000    
  0.24162604516141334       0.15401557209089148        0.00000000    
  0.17896640077952317       0.14060704302658403        0.00000000    
  0.11775851709198208       0.13304927862700977        0.00000000    
   5.8580390237506864E-002  0.12824439039000923        0.00000000    
   0.0000000000000000       0.12708690452674523        0.00000000    
   0.0000000000000000       0.17751456682047903        0.00000000    
  -4.9337128821322476E-002  0.17936360806549181        0.00000000    
  -9.8807189818596403E-002  0.18411924613582198        0.00000000    
 -0.14824566603342265       0.19332572687428093        0.00000000    
 -0.19708671850494494       0.20627183072409985        0.00000000    
 -0.24438107214529994       0.22656270318206398        0.00000000    
 -0.28106793457236445       0.25262974460246174        0.00000000    
 -0.30339254612316596       0.27504912688418848        0.00000000    
 -0.30757514622571491       0.29526784141394363        0.00000000    
 -0.28003184663411029       0.27989175286026474        0.00000000    
 -0.22247387186593504       0.21216131363686247        0.00000000    
 -0.18348144169764438        8.5359590103306252E-002   0.00000000    
 -0.14279714187229742       -1.9650514236810697E-002   0.00000000    
 -0.15425016516302822      -0.17455485871319604        0.00000000    
 -0.16691548937560999      -0.12419675466133907        0.00000000    
 -0.12178460970445398      -0.17206492623456573        0.00000000    
 -0.11000165067609000      -0.21607488033635691        0.00000000    
 -0.10468985818839405      -0.20279818604489977        0.00000000    
  -8.5862599000865028E-002 -0.18622462185140401        0.00000000    
  -6.7251969215899640E-002 -0.18712582048688803        0.00000000    
  -6.2270111401547874E-002 -0.19795965860540904        0.00000000    
  -5.4201639925987088E-002 -0.18646987214946589        0.00000000    
  -3.5858156126423200E-002 -0.18936078971896000        0.00000000    
  -2.4075011502872654E-002 -0.19962659625824922        0.00000000    
  -1.3636648796605826E-002 -0.18386373451379787        0.00000000    
  -1.8101726900626605E-003 -0.18188150193397479        0.00000000    
   5.4118830898032648E-003 -0.18783954884833501        0.00000000    
   2.1898036036546394E-002 -0.18523937505218363        0.00000000    
   4.5510719354092191E-002 -0.19420601537125420        0.00000000    
   5.4300855274197347E-002 -0.20979422930516173        0.00000000    
   5.7453755456466200E-002 -0.20413722302699355        0.00000000    
   6.6310226826203938E-002 -0.20965283827085654        0.00000000    
   7.7319295942331029E-002 -0.21685005895984008        0.00000000    
   9.1900977712603610E-002 -0.20651630202974974        0.00000000    
  0.15074503348531698      -0.16320910832272656        0.00000000    
  0.14753028419720066      -0.28530308334574100        0.00000000    
   9.8339988782573551E-002 -0.18490010003941904        0.00000000    
  0.12256127441524978       -9.6129456447682018E-002   0.00000000    
  0.17235213884239545       -4.0080923818032216E-002   0.00000000    
  0.19296704071400392        3.2675157894854985E-002   0.00000000    
  0.21650833098087668       0.18363117979163138        0.00000000    
  0.27570191813420220       0.25756701493442180        0.00000000    
  0.29632301160205632       0.26482044913120495        0.00000000    
  0.28772694519173969       0.25353838825172420        0.00000000    
  0.26845757405137932       0.24415708530339678        0.00000000    
  0.23744333648961452       0.22620555892875452        0.00000000    
  0.19404103323934099       0.20814177644636034        0.00000000    
  0.14691191184281924       0.19626960444757491        0.00000000    
   9.8394205559265757E-002  0.18711230717518587        0.00000000    
   4.9203606202435517E-002  0.18255008805125439        0.00000000    
   0.0000000000000000       0.18056520330356754        0.00000000    
   0.0000000000000000       0.22213901749881310        0.00000000    
  -3.9344782009852489E-002  0.22342106821649638        0.00000000    
  -7.8074290743315428E-002  0.22826135571370401        0.00000000    
 -0.11517949538745788       0.23572729815350552        0.00000000    
 -0.14953037792185703       0.24706219444889285        0.00000000    
 -0.17716122900748510       0.26069754418134161        0.00000000    
 -0.19538353814594822       0.27340407516675547        0.00000000    
 -0.20077117826642102       0.28198704798921753        0.00000000    
 -0.18518498350634335       0.27692632564957786        0.00000000    
 -0.15223954198712439       0.23774452751210143        0.00000000    
 -0.12062984598490725       0.16514086821302434        0.00000000    
  -9.3493700198833560E-002   6.6251459571977256E-002   0.00000000    
  -8.3273018611719971E-002  -5.1447365118836394E-002   0.00000000    
  -8.5990248262926547E-002 -0.12858775489133670        0.00000000    
  -8.3554265267981723E-002 -0.15993451726552727        0.00000000    
  -7.5814012741047973E-002 -0.18919829582852471        0.00000000    
  -7.3050986736316589E-002 -0.21348749577545589        0.00000000    
  -7.2470758724673276E-002 -0.21127759110511463        0.00000000    
  -6.7071267156144310E-002 -0.20197196754726415        0.00000000    
  -5.9341812212288736E-002 -0.19771855951990067        0.00000000    
  -5.2445819010250264E-002 -0.19924477058882498        0.00000000    
  -4.5577074573499340E-002 -0.20012197607846113        0.00000000    
  -3.7636963099558128E-002 -0.20199228106353953        0.00000000    
  -2.9712584566443809E-002 -0.20670262807041190        0.00000000    
  -1.7715746946764813E-002 -0.19922290302766993        0.00000000    
  -2.3399762096063480E-003 -0.19372458026383441        0.00000000    
   1.4685159984956156E-002 -0.20024366249294920        0.00000000    
   3.0125513000594809E-002 -0.20476176737002577        0.00000000    
   3.9803888528607147E-002 -0.20797468189903912        0.00000000    
   4.6207003116963942E-002 -0.21121881328595341        0.00000000    
   5.2013345469033273E-002 -0.21167188158057937        0.00000000    
   5.8478794460431721E-002 -0.21744010007844358        0.00000000    
   6.2382402685380506E-002 -0.22397547449336924        0.00000000    
   6.7392522553255799E-002 -0.21898268813436675        0.00000000    
   7.6216208059279061E-002 -0.21841046349684226        0.00000000    
   7.5905623945727155E-002 -0.22657639476974933        0.00000000    
   6.9058001647749889E-002 -0.18758887090298118        0.00000000    
   7.6656791152955317E-002 -0.12526076072208697        0.00000000    
   8.3740888538626060E-002  -6.7824581357079208E-002   0.00000000    
   8.9919894438719672E-002   3.3624907660691934E-002   0.00000000    
  0.11287312318308289       0.13618691101375105        0.00000000    
  0.14411793981116705       0.21457287992931312        0.00000000    
  0.17734063491114752       0.25397079556686947        0.00000000    
  0.18885022159115597       0.26147452154447653        0.00000000    
  0.18292581264000465       0.26141473210014943        0.00000000    
  0.16734218717638677       0.25554577515538196        0.00000000    
  0.14309444250199710       0.24645160814248729        0.00000000    
  0.11134937507808750       0.23683396156997324        0.00000000    
   7.5920310147111231E-002  0.23049472126546489        0.00000000    
   3.8408941225887158E-002  0.22586964223718434        0.00000000    
   0.0000000000000000       0.22485819654413172        0.00000000    
   0.0000000000000000       0.25625825828742149        0.00000000    
  -2.8929981931097522E-002  0.25757659136705685        0.00000000    
  -5.6682855020593323E-002  0.26058821438431951        0.00000000    
  -8.2093143677476485E-002  0.26591593278211750        0.00000000    
 -0.10290800688291041       0.27203930555831607        0.00000000    
 -0.11728931391971574       0.27773259119253796        0.00000000    
 -0.12255485476992367       0.27985687814243282        0.00000000    
 -0.11553231594917361       0.27389934631151386        0.00000000    
  -9.6483583644516022E-002  0.25037910026087296        0.00000000    
  -7.0931051824739910E-002  0.20579377956023992        0.00000000    
  -4.2594289373661831E-002  0.13714515771031702        0.00000000    
  -2.2888025098752415E-002   4.7404760012522404E-002   0.00000000    
  -1.9599292220265307E-002  -4.6110080026131574E-002   0.00000000    
  -3.2144084627170354E-002 -0.11866301792675939        0.00000000    
  -4.3112933453724446E-002 -0.16132638839903110        0.00000000    
  -4.8192389583903761E-002 -0.19046722109218039        0.00000000    
  -5.4718511710273095E-002 -0.20845547439052090        0.00000000    
  -5.9469006727641306E-002 -0.21213934548463018        0.00000000    
  -5.8000271603727768E-002 -0.20797843986044942        0.00000000    
  -5.2308970688755348E-002 -0.20513284306575830        0.00000000    
  -4.5842530940519564E-002 -0.20519291999344175        0.00000000    
  -3.9930261249260073E-002 -0.20695484080204268        0.00000000    
  -3.3952025193550957E-002 -0.20907776386979435        0.00000000    
  -2.8556192014453072E-002 -0.21293735697651292        0.00000000    
  -1.9373669624543399E-002 -0.21416753413135581        0.00000000    
   4.1566361374936029E-004 -0.21394505313577347        0.00000000    
   1.9736118837214857E-002 -0.21636878103931476        0.00000000    
   2.9992458075214747E-002 -0.21433334107745275        0.00000000    
   3.6561001659541237E-002 -0.21465002730410812        0.00000000    
   4.1889385918235704E-002 -0.21627496672811738        0.00000000    
   4.7638792839278264E-002 -0.21817147741171178        0.00000000    
   5.2474665441797567E-002 -0.22224182584142385        0.00000000    
   5.4496182288714910E-002 -0.22509887380248769        0.00000000    
   5.5733415447541269E-002 -0.22410664185220244        0.00000000    
   5.6058542928696969E-002 -0.22243532276646874        0.00000000    
   4.7202309770764575E-002 -0.21338471822898986        0.00000000    
   3.4633581546349837E-002 -0.18136419692180877        0.00000000    
   2.6419412866143879E-002 -0.13087005552878581        0.00000000    
   1.9981444857882807E-002  -6.2861415928489414E-002   0.00000000    
   2.1138100098542816E-002   2.1326081090170076E-002   0.00000000    
   3.6081810084184963E-002  0.11058879885303903        0.00000000    
   6.3068258642010711E-002  0.18193972690286636        0.00000000    
   8.7167718117229537E-002  0.22928179401651938        0.00000000    
  0.10561211073932165       0.25620954379106592        0.00000000    
  0.11166541583240365       0.26655081370983452        0.00000000    
  0.10751954901266354       0.27013918582724411        0.00000000    
   9.5270189263096230E-002  0.26835530189274670        0.00000000    
   7.6837231735486844E-002  0.26510829276943831        0.00000000    
   5.3465981652077714E-002  0.26102070507858416        0.00000000    
   2.7409052769600015E-002  0.25891195622598934        0.00000000    
   0.0000000000000000       0.25763387654903597        0.00000000    
   0.0000000000000000       0.28073208849921388        0.00000000    
  -1.9018707118127365E-002  0.28105145020277233        0.00000000    
  -3.6772495716205049E-002  0.28262001723445740        0.00000000    
  -5.1642124981697048E-002  0.28416404785263877        0.00000000    
  -6.2259572005826207E-002  0.28522350071563923        0.00000000    
  -6.6698648072713321E-002  0.28336877913720582        0.00000000    
  -6.3478580137228624E-002  0.27626616311081081        0.00000000    
  -5.1898336006724242E-002  0.25888727839025732        0.00000000    
  -3.3726359468093096E-002  0.22817045933728586        0.00000000    
  -1.1255017955891193E-002  0.17997854715043671        0.00000000    
   8.4977694511050826E-003  0.11487084026073206        0.00000000    
   2.0386040861957663E-002   3.8084541775171468E-002   0.00000000    
   1.9089127607793237E-002  -3.8781681414108794E-002   0.00000000    
   8.8436028500058477E-003 -0.10320109937495718        0.00000000    
  -5.8849788605442955E-003 -0.15109087641441846        0.00000000    
  -1.9796232971604301E-002 -0.18171202283610993        0.00000000    
  -3.0468900767527965E-002 -0.20001188272475989        0.00000000    
  -3.7950861556403939E-002 -0.20835048134455486        0.00000000    
  -4.0967547175440447E-002 -0.21021935350575330        0.00000000    
  -3.9628019977478321E-002 -0.20992275753371034        0.00000000    
  -3.5916136158860780E-002 -0.21058132909262586        0.00000000    
  -3.1253139612323552E-002 -0.21214169794092971        0.00000000    
  -2.6176472520397346E-002 -0.21494580987877662        0.00000000    
  -2.0374412540577487E-002 -0.21826720412668527        0.00000000    
  -1.1340555331094064E-002 -0.22705406658075186        0.00000000    
   2.2027206390673867E-003 -0.23439112989538535        0.00000000    
   1.4547878744424033E-002 -0.22758831760891240        0.00000000    
   2.2762999512197384E-002 -0.22158526451384411        0.00000000    
   2.9199587363474333E-002 -0.22040323530353251        0.00000000    
   3.4436158518132295E-002 -0.22108671414229464        0.00000000    
   3.8175942222209998E-002 -0.22284892062291897        0.00000000    
   4.0171865441377776E-002 -0.22439617845219612        0.00000000    
   4.0017016116807198E-002 -0.22481118871437586        0.00000000    
   3.7287328825982534E-002 -0.22290187280866952        0.00000000    
   2.9585123645567164E-002 -0.21626301411114310        0.00000000    
   1.7831337901744293E-002 -0.19894700798303008        0.00000000    
   3.2322995655473061E-003 -0.16863414060770737        0.00000000    
  -1.1633538300696585E-002 -0.12052010529710337        0.00000000    
  -2.0920369492583534E-002  -5.7486566960895963E-002   0.00000000    
  -2.2451040329525527E-002   1.6325247717876350E-002   0.00000000    
  -1.2856388813744598E-002   9.1051270722735805E-002   0.00000000    
   4.1278374557443412E-003  0.15750658020451663        0.00000000    
   2.5556848472316349E-002  0.20818647022167788        0.00000000    
   4.2512315419163886E-002  0.24190500801538511        0.00000000    
   5.4104074961498203E-002  0.26321028484847575        0.00000000    
   5.7714007243193047E-002  0.27401564922494487        0.00000000    
   5.4780780223546134E-002  0.27966142526255588        0.00000000    
   4.5995393492359558E-002  0.28102051365669489        0.00000000    
   3.3113486675431097E-002  0.28136164108995143        0.00000000    
   1.7222526513052276E-002  0.28051890925775647        0.00000000    
   0.0000000000000000       0.28065850279820614        0.00000000    
   0.0000000000000000       0.29554786188176158        0.00000000    
  -1.0337060676621332E-002  0.29559144461331949        0.00000000    
  -1.9357816050536204E-002  0.29485456679425248        0.00000000    
  -2.5899182355161927E-002  0.29334049386131400        0.00000000    
  -2.8521786928491250E-002  0.28928710630278986        0.00000000    
  -2.6300762658944144E-002  0.28152322534577978        0.00000000    
  -1.8375513929167833E-002  0.26696640023539819        0.00000000    
  -5.3821889063036523E-003  0.24361347211077033        0.00000000    
   1.1689028108012584E-002  0.20820107206237778        0.00000000    
   2.8951448532687319E-002  0.16021417248709902        0.00000000    
   4.3304492111576942E-002  0.10052938393693052        0.00000000    
   4.9690736505865855E-002   3.4151482292694907E-002   0.00000000    
   4.7663397999401905E-002  -3.1524370172023093E-002   0.00000000    
   3.7258798265334681E-002  -8.9808286126064715E-002   0.00000000    
   2.2845568630218832E-002 -0.13534187831840969        0.00000000    
   7.6153961688291355E-003 -0.16831959436031502        0.00000000    
  -5.7717047314769067E-003 -0.18934454250489133        0.00000000    
  -1.5637462696215080E-002 -0.20167010281129907        0.00000000    
  -2.1564755269079462E-002 -0.20795575384755705        0.00000000    
  -2.3762866039247058E-002 -0.21132777362009708        0.00000000    
  -2.3000078370593691E-002 -0.21365098449388814        0.00000000    
  -2.0260036547621998E-002 -0.21647508090950920        0.00000000    
  -1.6145389892192788E-002 -0.21980374065788588        0.00000000    
  -1.0194905091386344E-002 -0.22516181812847433        0.00000000    
  -3.2735368692156787E-003 -0.23611467801088948        0.00000000    
   2.2273159470002279E-003 -0.24437464725219402        0.00000000    
   7.9405414892461043E-003 -0.23566318390024493        0.00000000    
   1.4538714839159009E-002 -0.22832369234043373        0.00000000    
   2.0078805509815601E-002 -0.22564148599918310        0.00000000    
   2.3918833176996085E-002 -0.22492506226879549        0.00000000    
   2.5867896061758735E-002 -0.22469941908560687        0.00000000    
   2.5487903590629534E-002 -0.22416161073791338        0.00000000    
   2.2462167028575050E-002 -0.22186517054243748        0.00000000    
   1.5793703220969929E-002 -0.21644973988261876        0.00000000    
   5.5553043382829412E-003 -0.20477454297458605        0.00000000    
  -8.3022635821413809E-003 -0.18482412545589974        0.00000000    
  -2.4141362735495314E-002 -0.15231888564592838        0.00000000    
  -3.8560982354265451E-002 -0.10754990277463133        0.00000000    
  -4.9230184503321353E-002  -5.0500736143288281E-002   0.00000000    
  -5.2002750989751580E-002   1.3642654222621606E-002   0.00000000    
  -4.7231568575289824E-002   7.9368030286609478E-002   0.00000000    
  -3.4490080831984016E-002  0.13946410662659853        0.00000000    
  -1.8985990873003494E-002  0.18929584282265577        0.00000000    
  -2.5265448702969668E-003  0.22738072246340973        0.00000000    
   9.9959203566231548E-003  0.25362034562964503        0.00000000    
   1.8490976260250570E-002  0.27150060025687556        0.00000000    
   2.1627524146036508E-002  0.28197315336285528        0.00000000    
   2.0558154305157776E-002  0.28856354212682783        0.00000000    
   1.5708557546303514E-002  0.29155011619394672        0.00000000    
   8.5200590976324663E-003  0.29340989276316137        0.00000000    
   0.0000000000000000       0.29351010490183049        0.00000000    
   0.0000000000000000       0.30271633846649082        0.00000000    
  -3.0978958301342710E-003  0.30185792453375493        0.00000000    
  -5.1591222552934525E-003  0.29967006867130336        0.00000000    
  -5.0615371943058644E-003  0.29496877322632403        0.00000000    
  -2.0667472515751568E-003  0.28728664156681505        0.00000000    
   4.6389276740054237E-003  0.27459699088509054        0.00000000    
   1.4866929471476388E-002  0.25573938416733710        0.00000000    
   2.8358992767513993E-002  0.22835509985848090        0.00000000    
   4.2995160671242309E-002  0.19175205939523382        0.00000000    
   5.7038385049623518E-002  0.14535754034988116        0.00000000    
   6.6840421766317881E-002   9.1230935777346395E-002   0.00000000    
   7.1017000945395509E-002   3.2887106877791672E-002   0.00000000    
   6.7660564044038612E-002  -2.4876219350308829E-002   0.00000000    
   5.8489640331229276E-002  -7.6880913501816417E-002   0.00000000    
   4.5001571939986634E-002 -0.12036795291710135        0.00000000    
   3.0316966126476406E-002 -0.15337874148744465        0.00000000    