 <VTKFile type="UnstructuredGrid" version="0.1" byte_order="BigEndian">
 <UnstructuredGrid>
 <Piece NumberOfPoints="        2601 " NumberOfCells="        2500 ">
 <PointData Scalars="scalars">
 <DataArray type="Float32" NumberOfComponents="3" Name="Velocity" Format="ascii">
   0.0000000000000000        0.0000000000000000        0.00000000    
  -7.3074049220138174E-002   0.0000000000000000        0.00000000    
 -0.14727314965953048        0.0000000000000000        0.00000000    
 -0.22358397660397389        0.0000000000000000        0.00000000    
 -0.30360845200974834        0.0000000000000000        0.00000000    
 -0.38847017913766613        0.0000000000000000        0.00000000    
 -0.48094488777856342        0.0000000000000000        0.00000000    
 -0.58260631811920649        0.0000000000000000        0.00000000    
 -0.69976498320383196        0.0000000000000000        0.00000000    
 -0.83398619489178027        0.0000000000000000        0.00000000    
  -1.0129872891192058        0.0000000000000000        0.00000000    
  -1.1853654140882395        0.0000000000000000        0.00000000    
  -1.7796103533575571        0.0000000000000000        0.00000000    
  -2.7068603201997758        0.0000000000000000        0.00000000    
  -3.2329394030141536        0.0000000000000000        0.00000000    
  -2.2198466834755104        0.0000000000000000        0.00000000    
  -1.3779822358149563        0.0000000000000000        0.00000000    
  -1.0804752855389006        0.0000000000000000        0.00000000    
 -0.56784892140626264        0.0000000000000000        0.00000000    
 -0.40000271966819417        0.0000000000000000        0.00000000    
 -0.11039387799611505        0.0000000000000000        0.00000000    
  0.15090401122159824        0.0000000000000000        0.00000000    
  0.33153611643062247        0.0000000000000000        0.00000000    
  0.29107854954732709        0.0000000000000000        0.00000000    
  0.22426715114595674        0.0000000000000000        0.00000000    
  0.11773112878578450        0.0000000000000000        0.00000000    
  -7.1291170607853102E-002   0.0000000000000000        0.00000000    
   1.0610265680612081E-002   0.0000000000000000        0.00000000    
 -0.12001525768155229        0.0000000000000000        0.00000000    
   6.1993334427806128E-002   0.0000000000000000        0.00000000    
  0.27736317243125369        0.0000000000000000        0.00000000    
  0.41518708635142909        0.0000000000000000        0.00000000    
  0.84688025073596018        0.0000000000000000        0.00000000    
   1.2326178851776333        0.0000000000000000        0.00000000    
   1.6587425180998046        0.0000000000000000        0.00000000    
   2.1306528774659181        0.0000000000000000        0.00000000    
   2.2040931382763373        0.0000000000000000        0.00000000    
   1.7609465990839623        0.0000000000000000        0.00000000    
   1.4748547987886371        0.0000000000000000        0.00000000    
   1.1875087704949308        0.0000000000000000        0.00000000    
   1.0298295885997339        0.0000000000000000        0.00000000    
  0.84497320026018297        0.0000000000000000        0.00000000    
  0.70666682930307001        0.0000000000000000        0.00000000    
  0.58744588510243811        0.0000000000000000        0.00000000    
  0.48411489644833705        0.0000000000000000        0.00000000    
  0.39075780356474921        0.0000000000000000        0.00000000    
  0.30510977410706686        0.0000000000000000        0.00000000    
  0.22463154977661895        0.0000000000000000        0.00000000    
  0.14788498041742729        0.0000000000000000        0.00000000    
   7.3379206187527496E-002   0.0000000000000000        0.00000000    
   0.0000000000000000        0.0000000000000000        0.00000000    
   0.0000000000000000        7.2055741853325195E-002   0.00000000    
  -7.1513913410144875E-002   7.2532220774863113E-002   0.00000000    
 -0.14394154033394679        7.4094506586227182E-002   0.00000000    
 -0.21845532141524920        7.6730101437397738E-002   0.00000000    
 -0.29592063759750059        8.0759690148477489E-002   0.00000000    
 -0.37810281590754641        8.6284215287297905E-002   0.00000000    
 -0.46597421103401065        9.4061888477815492E-002   0.00000000    
 -0.56262304073578473       0.10424837156228621        0.00000000    
 -0.66889328441866724       0.11918053720278879        0.00000000    
 -0.79139599071534594       0.13754338077929359        0.00000000    
 -0.92353538789039746       0.17359711062035443        0.00000000    
  -1.0816745392260734       0.15692016568151854        0.00000000    
  -1.0755359877198927       0.43118622207586649        0.00000000    
  -2.0174680382938832        1.4379957953826659        0.00000000    
  -2.0648606822039195      -0.86452406861375775        0.00000000    
  -1.6654521426675397      -0.54797719041670745        0.00000000    
  -1.3980116509393832      -0.56132774892711945        0.00000000    
 -0.72269346891153996      -0.41149738333243641        0.00000000    
 -0.66628902639476073      -0.15753342327279835        0.00000000    
 -0.43219068886365353      -0.24441111595280582        0.00000000    
 -0.19863884214228225      -0.27874957239732689        0.00000000    
   6.7857879365398624E-002 -0.24904503828570046        0.00000000    
  0.24216488457513272      -0.10589407209100983        0.00000000    
  0.28486739112319215       0.10364913246723792        0.00000000    
   9.7992342157841389E-002  0.15003731494006281        0.00000000    
   4.5861320648449860E-002   8.6297289694930342E-003   0.00000000    
  0.11856082073261406       0.10769307038017618        0.00000000    
 -0.12650347702540995        5.5469791129451176E-002   0.00000000    
   5.3136890399384573E-002 -0.10448463515076963        0.00000000    
   9.4783915816025327E-002 -0.11917098233401509        0.00000000    
  0.25874411351408000      -0.26015905332465078        0.00000000    
  0.58384734568322549      -0.20276809272206411        0.00000000    
  0.63827838320083718      -0.28335610913618370        0.00000000    
   1.0852622159890686      -0.54936535805016218        0.00000000    
   1.6078732353789666      -0.39937029421737086        0.00000000    
   1.7527846624554164      -0.21745149218105753        0.00000000    
   1.9166368815093386       -1.9840987638315325E-002   0.00000000    
   1.8167659471592215       0.56285846122521166        0.00000000    
   1.2496620277923707       0.29033725848101116        0.00000000    
   1.1004328093292675       0.14623798827298645        0.00000000    
  0.93368176987998930       0.17819223306891685        0.00000000    
  0.79913878245264558       0.14120714269521867        0.00000000    
  0.67473264553553747       0.12150536517649459        0.00000000    
  0.56657448306683056       0.10587374149043367        0.00000000    
  0.46891165638311672        9.5120073845079200E-002   0.00000000    
  0.38008827358054875        8.7060401838839119E-002   0.00000000    
  0.29737469055663607        8.1301210640574814E-002   0.00000000    
  0.21939011367006372        7.7161590574301997E-002   0.00000000    
  0.14454760690202167        7.4427485550815950E-002   0.00000000    
   7.1789299433753825E-002   7.2836596145252550E-002   0.00000000    
   0.0000000000000000        7.2331909473938347E-002   0.00000000    
   0.0000000000000000       0.14103160487133887        0.00000000    
  -6.6911205975304255E-002  0.14198147714020357        0.00000000    
 -0.13452495624971367       0.14468662741699617        0.00000000    
 -0.20338136221753439       0.14950816765363009        0.00000000    
 -0.27438901761399476       0.15645459550881397        0.00000000    
 -0.34788842274248682       0.16627089336331038        0.00000000    
 -0.42495478534533776       0.17901296812889148        0.00000000    
 -0.50530547444607443       0.19629681071140259        0.00000000    
 -0.58914594715092217       0.21724281443903282        0.00000000    
 -0.67316302681158535       0.24600088949782090        0.00000000    
 -0.74286914117229430       0.26698511343502329        0.00000000    
 -0.80167271147643349       0.28047488450328650        0.00000000    
 -0.77758199776699100       0.27740223803468544        0.00000000    
  0.40650781346313153        1.3496220187880752        0.00000000    
 -0.23133168620989211       -9.0918148391504194E-002   0.00000000    
  -1.0324574546599257      -0.91986588167953498        0.00000000    
 -0.55958078716800586      -0.92975621684007903        0.00000000    
 -0.69954633046469528      -0.57842155410575646        0.00000000    
 -0.38013628248900749      -0.36642374294795055        0.00000000    
 -0.61658220087661808       -3.3173215377187620E-002   0.00000000    
 -0.72311022508483913      -0.61701129544331357        0.00000000    
 -0.11340875284327862      -0.78698150894558871        0.00000000    
  0.16738391740845868       -2.3057276851266812E-002   0.00000000    
 -0.17442466480221910       0.31991841293157769        0.00000000    
 -0.12566610504295586        7.1884523721820623E-002   0.00000000    
   6.7699571539871902E-003   6.4774795400583960E-003   0.00000000    
  0.15113553216231582      -0.10721975524369816        0.00000000    
  0.39551037130652056       0.27107207540798317        0.00000000    
 -0.13695521671676461        3.2738301208789213E-002   0.00000000    
  0.29348904938254761      -0.72848521016641810        0.00000000    
  0.79413860538857861      -0.31545457915521141        0.00000000    
  0.44642173888322922      -0.12485893251088222        0.00000000    
  0.55227425051697687      -0.52154881845616585        0.00000000    
  0.58418481762067809      -0.79006704857710119        0.00000000    
  0.95832456096275620       -1.0554193663791698        0.00000000    
   1.4220497486965633      -0.17003903478408552        0.00000000    
  0.72447188113637573       0.46647220351480029        0.00000000    
  0.25948240255216670       0.64140568305231149        0.00000000    
  0.75985187016039513       0.27852448845729549        0.00000000    
  0.79417213943351017       0.27295970747955667        0.00000000    
  0.74196349166016207       0.27043020108153532        0.00000000    
  0.67540420584845462       0.25007144791913277        0.00000000    
  0.59171027696466028       0.22074112575093796        0.00000000    
  0.50778536793663875       0.19872105241036211        0.00000000    
  0.42686177630666761       0.18085918123653244        0.00000000    
  0.34944270257845322       0.16756375097594828        0.00000000    
  0.27548159469935862       0.15747255240429200        0.00000000    
  0.20418879954983590       0.15026762084454248        0.00000000    
  0.13501056332029968       0.14534219827603742        0.00000000    
   6.7159078136561051E-002  0.14253167606993988        0.00000000    
   0.0000000000000000       0.14158520711747510        0.00000000    
   0.0000000000000000       0.20435085631685970        0.00000000    
  -5.9840978276813658E-002  0.20541440994471472        0.00000000    
 -0.11988747975654866       0.20891394636453409        0.00000000    
 -0.18043174693714117       0.21468152185239947        0.00000000    
 -0.24139597153072576       0.22325312129795288        0.00000000    
 -0.30287268106603021       0.23444848223581055        0.00000000    
 -0.36405900319344070       0.24908806398443303        0.00000000    
 -0.42378740182794944       0.26630080258885919        0.00000000    
 -0.47934867054173491       0.28664056397784049        0.00000000    
 -0.52316955660622921       0.30444110568179816        0.00000000    
 -0.55492441514236790       0.31000587014524045        0.00000000    
 -0.56252855212016539       0.30386183507250669        0.00000000    
 -0.54014368147633485       0.20753970311005462        0.00000000    
 -0.43756717263897077       0.13281823366416459        0.00000000    
  0.54438783871505103       0.78177012509883559        0.00000000    
  0.62053938870419434       -1.0675799366653771        0.00000000    
 -0.25655578792371653      -0.37782365267195517        0.00000000    
 -0.60235010048377480      -0.64459426237255713        0.00000000    
 -0.86967663414153751      -0.35233454895486438        0.00000000    
 -0.57317452537587821      -0.10731859970489151        0.00000000    
 -0.45780622261796461      -0.55170618962112783        0.00000000    
  -1.0801430077082832      -0.83965130187724868        0.00000000    
  -1.2540318909977162       -7.7291270838005799E-002   0.00000000    
 -0.60437664986003803        6.6305748031483133E-002   0.00000000    
 -0.17505658452603290      -0.15258143643199437        0.00000000    
   4.4341523635880523E-002 -0.12089073062611043        0.00000000    
  0.17566847279523454      -0.25554406920585160        0.00000000    
  0.36015897190390611       -9.4689488449174047E-003   0.00000000    
   1.0813321813913288       0.12457170403998621        0.00000000    
  0.89538920475951489       -1.0648199024257423        0.00000000    
  0.49095932768382983       -7.5339565780416964E-002   0.00000000    
  0.81182648424149706      -0.33812423589672352        0.00000000    
  0.79865503463091647      -0.40096457704831456        0.00000000    
  0.47885677496791784      -0.62276359738289266        0.00000000    
 -0.31649747351593288      -0.80150831238514664        0.00000000    
 -0.92764088145538426      -0.27653186852996359        0.00000000    
 -0.31719877826018916       0.66010080167137275        0.00000000    
  0.46513032757402289       0.13043745769005483        0.00000000    
  0.54706381098266577       0.20718976282856413        0.00000000    
  0.55984943399763831       0.29718854081811885        0.00000000    
  0.54978310404960862       0.30847634546172448        0.00000000    
  0.52133416347943717       0.30703352991816873        0.00000000    
  0.47941684768493353       0.28939028842782777        0.00000000    
  0.42451797069470881       0.26889567574936402        0.00000000    
  0.36506404380170920       0.25106207641825834        0.00000000    
  0.30375846684653535       0.23608550647540003        0.00000000    
  0.24218197201475533       0.22448839961356082        0.00000000    
  0.18099120193604265       0.21573533886137886        0.00000000    
  0.12028029290680715       0.20976362551587038        0.00000000    
   6.0025467139660157E-002  0.20621655977890138        0.00000000    
   0.0000000000000000       0.20508486868265255        0.00000000    
   0.0000000000000000       0.25965847461233038        0.00000000    
  -5.0934553564479818E-002  0.26088232348846574        0.00000000    
 -0.10168314530958000       0.26424112604354283        0.00000000    
 -0.15188534023094619       0.27010080427325633        0.00000000    
 -0.20115934999079457       0.27807207322842581        0.00000000    
 -0.24855715921179622       0.28850404905950028        0.00000000    
 -0.29277465752811566       0.30043631760231687        0.00000000    
 -0.33157485582167717       0.31348114589681553        0.00000000    
 -0.36089188900653796       0.32433852256629742        0.00000000    
 -0.37774505372726441       0.32741719787620360        0.00000000    
 -0.37687326329076909       0.31791284604815589        0.00000000    
 -0.34749760356332055       0.27418333641763393        0.00000000    
 -0.30547143893319928       0.17280716648845856        0.00000000    
 -0.26666486778193921        2.6167690294440622E-002   0.00000000    
 -0.23134442494975979      -0.12885478570630807        0.00000000    
 -0.20753538023803697      -0.25691562051078015        0.00000000    
 -0.18014068158986868      -0.33878749080259368        0.00000000    
 -0.15490244803832945      -0.36307434518903670        0.00000000    
 -0.13550903165700831      -0.38592134881623158        0.00000000    
 -0.11435895996236364      -0.39138398027149301        0.00000000    
  -9.9971437601073992E-002 -0.39739663414672671        0.00000000    
  -9.1239969778706562E-002 -0.38035554003661337        0.00000000    
  -9.0799406080693229E-002 -0.36313871306045936        0.00000000    
  -7.9905146793786325E-002 -0.30839631015788860        0.00000000    
  -3.1803923362976931E-002 -0.25530066700670273        0.00000000    
  -3.4615338391620976E-003 -0.26591199773641599        0.00000000    
   1.4764506918699878E-002 -0.26007579200941278        0.00000000    
   8.6173573180185287E-002 -0.26083679141131577        0.00000000    
  0.11439696449967418      -0.37345705419485226        0.00000000    
   9.9719566619366859E-002 -0.36617076962625278        0.00000000    
  0.10499744083595422      -0.37483669569500716        0.00000000    
  0.11816793510094532      -0.37266475677377231        0.00000000    
  0.13547729467322206      -0.37056196609996839        0.00000000    
  0.14869985219024343      -0.34659050613875786        0.00000000    
  0.16139622345032673      -0.29502352636238738        0.00000000    
  0.18111830542174920      -0.19159532853574321        0.00000000    
  0.22717870513667868       -8.1338241220049651E-002   0.00000000    
  0.27398296007878270        4.2743139808612253E-002   0.00000000    
  0.30970938868349940       0.17722416869391686        0.00000000    
  0.35014267148109662       0.27393522913761659        0.00000000    
  0.37579306807676788       0.31614559049229995        0.00000000    
  0.37575906345461213       0.32784723007754885        0.00000000    
  0.36000686257276432       0.32624610494244882        0.00000000    
  0.33149720930549487       0.31544838948999748        0.00000000    
  0.29307592855047498       0.30238457032342331        0.00000000    
  0.24905282368340295       0.29009169439032495        0.00000000    
  0.20162228570976959       0.27948924450191220        0.00000000    
  0.15229851393222529       0.27124903582718402        0.00000000    
  0.10195726442505440       0.26530208708438269        0.00000000    
   5.1083376446909939E-002  0.26180681195360794        0.00000000    
   0.0000000000000000       0.26060346009244745        0.00000000    
   0.0000000000000000       0.30582745575030451        0.00000000    
  -4.1044771745661963E-002  0.30669266765858438        0.00000000    
  -8.1480236318101584E-002  0.30961483818890767        0.00000000    
 -0.12065035591224128       0.31409940664133723        0.00000000    
 -0.15759281807754286       0.32028994278341105        0.00000000    
 -0.19110602557938930       0.32719719622527405        0.00000000    
 -0.21942113262066298       0.33427577579200340        0.00000000    
 -0.24004877959041820       0.33906953296831299        0.00000000    
 -0.25032279124275331       0.33834118032979771        0.00000000    
 -0.24718839211673446       0.32713330570522992        0.00000000    
 -0.22597782793625390       0.29611438359994080        0.00000000    
 -0.19123705962589049       0.23186537082580153        0.00000000    
 -0.14941567192006869       0.13127757974212748        0.00000000    
 -0.11503147789436319       -5.4934881384013524E-003   0.00000000    
 -0.10393738661303714      -0.14360814138889030        0.00000000    
 -0.10182392059963875      -0.26808477555385113        0.00000000    
 -0.10726116259172565      -0.34957579243000231        0.00000000    
 -0.10748436608439618      -0.37730107362056414        0.00000000    
 -0.10150087714717079      -0.39707152570401055        0.00000000    
  -9.8204009004047410E-002 -0.40468074322176095        0.00000000    
  -9.5685479515630611E-002 -0.40100592304650873        0.00000000    
  -9.5391242667233311E-002 -0.38577195580784551        0.00000000    
  -9.3350976115954290E-002 -0.36020312753867928        0.00000000    
  -7.7681041618011426E-002 -0.33789608946470245        0.00000000    
  -4.4926121121415627E-002 -0.30665703162773278        0.00000000    
  -6.9513025763845385E-003 -0.28087284118436950        0.00000000    
   3.1846891140791048E-002 -0.30213918303665810        0.00000000    
   6.9135668344606230E-002 -0.32747124384968423        0.00000000    
   9.0491704552247310E-002 -0.35640202928407894        0.00000000    
   9.3211834503627508E-002 -0.37126852660823123        0.00000000    
   9.6123412393920679E-002 -0.37792839082012603        0.00000000    
   9.8148601465594010E-002 -0.38476874498551905        0.00000000    
   9.9327510933403931E-002 -0.37694624692906353        0.00000000    
   9.9661108738602441E-002 -0.35376238063203325        0.00000000    
   9.6878549998826655E-002 -0.29776546439244156        0.00000000    
  0.10396696253766775      -0.21566388501635961        0.00000000    
  0.11378597831412489      -0.11314910023280994        0.00000000    
  0.12633549585327855        1.5200226338414224E-002   0.00000000    
  0.15719413096071982       0.13818201844969005        0.00000000    
  0.19501836409298254       0.23471986344978107        0.00000000    
  0.22789186737012643       0.29683705630503671        0.00000000    
  0.24740045704532412       0.32768117920956902        0.00000000    
  0.25006551472170069       0.33949929901369419        0.00000000    
  0.24001975874755227       0.34075060465797891        0.00000000    
  0.21963071257488015       0.33589268208099582        0.00000000    
  0.19142648998808737       0.32881091008448987        0.00000000    
  0.15796177854266838       0.32166527822471036        0.00000000    
  0.12095959145267948       0.31539896096983949        0.00000000    
   8.1716841165634296E-002  0.31073616173388480        0.00000000    
   4.1162834631850984E-002  0.30780063181397999        0.00000000    
   0.0000000000000000       0.30685585130878973        0.00000000    
   0.0000000000000000       0.34188482732810949        0.00000000    
  -3.0899509806977889E-002  0.34257957763139502        0.00000000    
  -6.0940029843260975E-002  0.34420391282279494        0.00000000    
  -8.9149953067836921E-002  0.34689037482412888        0.00000000    
 -0.11442375484719054       0.34971523854323672        0.00000000    
 -0.13535876064165406       0.35222011375969614        0.00000000    
 -0.15024928994858960       0.35245849460373108        0.00000000    
 -0.15716760410244096       0.34843277527809641        0.00000000    
 -0.15418601355471023       0.33627035912253750        0.00000000    
 -0.13917127854011979       0.31105499276977250        0.00000000    
 -0.11333590650287320       0.26514676031558343        0.00000000    
  -7.9523704826666111E-002  0.19428002412150905        0.00000000    
  -4.6263793254912582E-002   9.3781627166829529E-002   0.00000000    
  -2.5073042293973755E-002  -2.3572480551668929E-002   0.00000000    
  -1.5502229868676710E-002 -0.14619405268370017        0.00000000    
  -2.5566935763019417E-002 -0.25754762437969569        0.00000000    
  -4.6462554391269617E-002 -0.33378008298517964        0.00000000    
  -6.3834198134123096E-002 -0.37550193583065422        0.00000000    
  -7.3349041238198034E-002 -0.39533930932770173        0.00000000    
  -7.9416675157761157E-002 -0.40364219382219974        0.00000000    
  -8.3975573606004966E-002 -0.40000410348672388        0.00000000    
  -8.4827062834061467E-002 -0.38621652298838105        0.00000000    
  -7.7676169238982337E-002 -0.36894972050483132        0.00000000    
  -6.8914615447140989E-002 -0.35358098478864408        0.00000000    
  -5.1244120652413822E-002 -0.34139755159538504        0.00000000    
  -4.3279829028127319E-003 -0.33102327751197358        0.00000000    
   4.2429323256827869E-002 -0.33754424658672022        0.00000000    
   6.2145418682333066E-002 -0.34907105292920221        0.00000000    
   6.9763441329197581E-002 -0.36377627905948562        0.00000000    
   7.6316636559488768E-002 -0.37316760201480892        0.00000000    
   7.8047940464415724E-002 -0.38067219720914652        0.00000000    
   7.5724839379531700E-002 -0.38172702658374541        0.00000000    
   6.7776542793881719E-002 -0.37321857821357340        0.00000000    
   5.4322885017744744E-002 -0.34436998937722951        0.00000000    
   4.2039260336995322E-002 -0.29209167222766069        0.00000000    
   3.0606340270762082E-002 -0.21699316965472892        0.00000000    
   2.5367244389399066E-002 -0.11639973549116618        0.00000000    
   3.4997625946930240E-002  -3.7290375015722409E-003   0.00000000    
   5.5754171664425922E-002  0.10549610146288088        0.00000000    
   8.5867479541877859E-002  0.19946823942481023        0.00000000    
  0.11703772836381242       0.26804492822886283        0.00000000    
  0.14128168187900203       0.31272076409323812        0.00000000    
  0.15527168976275502       0.33780464856779369        0.00000000    
  0.15781050606304681       0.34995219477564188        0.00000000    
  0.15077437781193848       0.35411626638502153        0.00000000    
  0.13583688069335537       0.35372904548377743        0.00000000    
  0.11484098308576239       0.35120775187637526        0.00000000    
   8.9497302372016876E-002  0.34820235511987174        0.00000000    
   6.1178969821930523E-002  0.34549385041894909        0.00000000    
   3.1025972110001927E-002  0.34374994737260411        0.00000000    
   0.0000000000000000       0.34309534248999601        0.00000000    
   0.0000000000000000       0.36824055580541065        0.00000000    
  -2.1163345854007504E-002  0.36828670481308579        0.00000000    
  -4.1324945461927574E-002  0.36869890528330973        0.00000000    
  -5.9431654023460505E-002  0.36871201414772597        0.00000000    
  -7.4317476877557728E-002  0.36805322385108130        0.00000000    
  -8.4687144826847374E-002  0.36518680219359995        0.00000000    
  -8.9161138594129510E-002  0.35885632924202138        0.00000000    
  -8.6414707866710030E-002  0.34620682406422731        0.00000000    
  -7.5294347859894570E-002  0.32439435977983366        0.00000000    
  -5.5994941636879139E-002  0.28861685087287031        0.00000000    
  -2.9950816372298374E-002  0.23570540490866240        0.00000000    
  -1.4430890431774651E-003  0.16140145052116817        0.00000000    
   2.2619160676928755E-002   6.9338039473421806E-002   0.00000000    
   3.8389108671459130E-002  -3.6089591815412943E-002   0.00000000    
   3.8432713239359623E-002 -0.14329135841481228        0.00000000    
   2.5791166043928053E-002 -0.23774406556020336        0.00000000    
   4.0163815319409560E-003 -0.31091323866565701        0.00000000    
  -1.8947689657446233E-002 -0.35803306521898759        0.00000000    
  -3.7896052519694107E-002 -0.38434497397386075        0.00000000    
  -5.1270622347022871E-002 -0.39519432542985794        0.00000000    
  -5.9756410536040548E-002 -0.39540728524241714        0.00000000    
  -6.1992084321197502E-002 -0.38772617822002725        0.00000000    
  -5.9224586299429928E-002 -0.37735845689050174        0.00000000    
  -4.8092037236771752E-002 -0.36506635125793996        0.00000000    
  -2.6504518688859328E-002 -0.36917019846901888        0.00000000    
  -3.0455667692407826E-003 -0.37362572030876340        0.00000000    
   2.0048116067345738E-002 -0.36479279278698512        0.00000000    
   4.0005952470263638E-002 -0.36149643855777480        0.00000000    
   5.0577475013401076E-002 -0.36954043862132108        0.00000000    
   5.2692074981458455E-002 -0.37607123765184808        0.00000000    
   5.1257724043877129E-002 -0.37806551453996839        0.00000000    
   4.3773728136659341E-002 -0.37452661226145378        0.00000000    
   3.0396096911682137E-002 -0.35909306472591440        0.00000000    
   1.3221415894978605E-002 -0.32786716407292960        0.00000000    
  -6.0963146688363234E-003 -0.27699314228831962        0.00000000    
  -2.2267907496324384E-002 -0.20448718670163987        0.00000000    
  -3.0469860427522893E-002 -0.11546466963302250        0.00000000    
  -2.8596399599880050E-002  -1.6167945746551511E-002   0.00000000    
  -1.3906021919424406E-002   8.2488086308160000E-002   0.00000000    
   8.8160750321436970E-003  0.16964084974864019        0.00000000    
   3.5130293162394730E-002  0.24038785095088414        0.00000000    
   5.9468619945727205E-002  0.29179556107070337        0.00000000    
   7.7568697229030870E-002  0.32663976642125608        0.00000000    
   8.7939758446747146E-002  0.34820719940214628        0.00000000    
   9.0231097246423086E-002  0.36060605120793271        0.00000000    
   8.5500056168440766E-002  0.36690779885540881        0.00000000    
   7.4940578772670047E-002  0.36958437350610163        0.00000000    
   5.9893292356793235E-002  0.37021670061775969        0.00000000    
   4.1634662312575489E-002  0.37005646751336940        0.00000000    
   2.1317666469372772E-002  0.36965732383131827        0.00000000    
   0.0000000000000000       0.36953160460866413        0.00000000    
   0.0000000000000000       0.38512038630012008        0.00000000    
  -1.2293425250749737E-002  0.38486364542117057        0.00000000    
  -2.3576806870124502E-002  0.38356694590055801        0.00000000    
  -3.2825623945240925E-002  0.38119949916516016        0.00000000    
  -3.8968311530827068E-002  0.37659424927136798        0.00000000    
  -4.0957040493970316E-002  0.36900417368377514        0.00000000    
  -3.7789106603133789E-002  0.35634501762633181        0.00000000    
  -2.8721300482313090E-002  0.33690389882970984        0.00000000    
  -1.3595819580083067E-002  0.30745144410336295        0.00000000    
   6.8140664055516371E-003  0.26585047433875331        0.00000000    
   3.0402107790240551E-002  0.20883961479162164        0.00000000    
   5.3142240250259466E-002  0.13701938084721099        0.00000000    
   7.1541024931152539E-002   5.1259074744635515E-002   0.00000000    
   7.9836006083254044E-002  -4.2075556234954799E-002   0.00000000    
   7.7563223933690348E-002 -0.13507621641512302        0.00000000    
   6.3508696357775091E-002 -0.21926313278996348        0.00000000    