 <VTKFile type="UnstructuredGrid" version="0.1" byte_order="BigEndian">
 <UnstructuredGrid>
 <Piece NumberOfPoints="        2601 " NumberOfCells="        2500 ">
 <PointData Scalars="scalars">
 <DataArray type="Float32" NumberOfComponents="3" Name="Velocity" Format="ascii">
   0.0000000000000000        0.0000000000000000        0.00000000    
 -0.14557320369199034        0.0000000000000000        0.00000000    
 -0.29062269321921291        0.0000000000000000        0.00000000    
 -0.43480552890044355        0.0000000000000000        0.00000000    
 -0.57727857431270291        0.0000000000000000        0.00000000    
 -0.71773143577306642        0.0000000000000000        0.00000000    
 -0.85485053437535174        0.0000000000000000        0.00000000    
 -0.98817518652123437        0.0000000000000000        0.00000000    
  -1.1157435361313788        0.0000000000000000        0.00000000    
  -1.2367053909899888        0.0000000000000000        0.00000000    
  -1.3482508930157384        0.0000000000000000        0.00000000    
  -1.4488456184030667        0.0000000000000000        0.00000000    
  -1.5346637671116052        0.0000000000000000        0.00000000    
  -1.6032074685912783        0.0000000000000000        0.00000000    
  -1.6496497838967588        0.0000000000000000        0.00000000    
  -1.6705001858046862        0.0000000000000000        0.00000000    
  -1.6604220446192759        0.0000000000000000        0.00000000    
  -1.6157813979029882        0.0000000000000000        0.00000000    
  -1.5319733486770861        0.0000000000000000        0.00000000    
  -1.4084015162918957        0.0000000000000000        0.00000000    
  -1.2427365539845150        0.0000000000000000        0.00000000    
  -1.0426924336350583        0.0000000000000000        0.00000000    
 -0.80777083204053723        0.0000000000000000        0.00000000    
 -0.55442574083924401        0.0000000000000000        0.00000000    
 -0.28114741839719321        0.0000000000000000        0.00000000    
  -4.9956228926771144E-003   0.0000000000000000        0.00000000    
  0.27485081155660224        0.0000000000000000        0.00000000    
  0.54659450964650647        0.0000000000000000        0.00000000    
  0.80428595533497738        0.0000000000000000        0.00000000    
   1.0402435020801308        0.0000000000000000        0.00000000    
   1.2441693939162703        0.0000000000000000        0.00000000    
   1.4123843281491226        0.0000000000000000        0.00000000    
   1.5389977343605949        0.0000000000000000        0.00000000    
   1.6253409834915085        0.0000000000000000        0.00000000    
   1.6718570753531430        0.0000000000000000        0.00000000    
   1.6834325462727238        0.0000000000000000        0.00000000    
   1.6631078194752904        0.0000000000000000        0.00000000    
   1.6169716690972680        0.0000000000000000        0.00000000    
   1.5479054996630421        0.0000000000000000        0.00000000    
   1.4615800323346140        0.0000000000000000        0.00000000    
   1.3599059538433003        0.0000000000000000        0.00000000    
   1.2474456448692905        0.0000000000000000        0.00000000    
   1.1251997004928425        0.0000000000000000        0.00000000    
  0.99655541599047481        0.0000000000000000        0.00000000    
  0.86191903768555544        0.0000000000000000        0.00000000    
  0.72367550521189472        0.0000000000000000        0.00000000    
  0.58195145445711893        0.0000000000000000        0.00000000    
  0.43834249989904206        0.0000000000000000        0.00000000    
  0.29294268599052903        0.0000000000000000        0.00000000    
  0.14674620865576724        0.0000000000000000        0.00000000    
   0.0000000000000000        0.0000000000000000        0.00000000    
   0.0000000000000000       0.14530578933631072        0.00000000    
 -0.14483679298947805       0.14510420734383206        0.00000000    
 -0.28926630166410355       0.14437479085670019        0.00000000    
 -0.43263203401188277       0.14317377717097499        0.00000000    
 -0.57463960528116287       0.14130683950925968        0.00000000    
 -0.71424466794241925       0.13875108461101637        0.00000000    
 -0.85110836553734237       0.13523171158489902        0.00000000    
 -0.98363880035326046       0.13062337537554763        0.00000000    
  -1.1112495125114044       0.12455568639146235        0.00000000    
  -1.2316123539202972       0.11676900987467675        0.00000000    
  -1.3436280693626925       0.10679220759220559        0.00000000    
  -1.4440352296582315        9.4209678089286888E-002   0.00000000    
  -1.5309154911860583        7.8488732145836945E-002   0.00000000    
  -1.5999577464707078        5.9097224617097953E-002   0.00000000    
  -1.6481987357268668        3.5586079943322371E-002   0.00000000    
  -1.6704515209541724        7.5171071905061797E-003   0.00000000    
  -1.6628992697828964       -2.5147499548386423E-002   0.00000000    
  -1.6202968201407431       -6.2095596811482218E-002   0.00000000    
  -1.5394515065913510      -0.10255776596498334        0.00000000    
  -1.4166175492886972      -0.14384802372432468        0.00000000    
  -1.2538675536576598      -0.18456693421525228        0.00000000    
  -1.0500732884593369      -0.21927145133404291        0.00000000    
 -0.81799390633426949      -0.24772953238670808        0.00000000    
 -0.55687854806004367      -0.26673091709038221        0.00000000    
 -0.28605718493685256      -0.27736876847603614        0.00000000    
  -2.9687630877325115E-003 -0.28187144887920196        0.00000000    
  0.27711159370025673      -0.27805534235924478        0.00000000    
  0.55221247805487950      -0.26878924008686506        0.00000000    
  0.81298755665935762      -0.24967728420724924        0.00000000    
   1.0490896037828301      -0.22238230966290706        0.00000000    
   1.2548706676952790      -0.18732464608683216        0.00000000    
   1.4209593351605967      -0.14697895561280824        0.00000000    
   1.5465565027628281      -0.10523161820204949        0.00000000    
   1.6298588274889481       -6.4413955656415237E-002   0.00000000    
   1.6745486430689944       -2.6791951786439495E-002   0.00000000    
   1.6832463897028356        6.5187342316104860E-003   0.00000000    
   1.6618219174378992        3.5230464829557800E-002   0.00000000    
   1.6134666623159730        5.9260940668998063E-002   0.00000000    
   1.5442309879985650        7.9040903081408223E-002   0.00000000    
   1.4564686696626157        9.5046882581588304E-002   0.00000000    
   1.3553014570261639       0.10779440854492622        0.00000000    
   1.2420735849671509       0.11789377248672750        0.00000000    
   1.1207035584430460       0.12572219841255511        0.00000000    
  0.99179437674769433       0.13183126778380430        0.00000000    
  0.85817102623780828       0.13642846102971437        0.00000000    
  0.72002837786693807       0.13995771981346575        0.00000000    
  0.57930823113186869       0.14248647767507933        0.00000000    
  0.43607374596318832       0.14435696205033785        0.00000000    
  0.29158433387863986       0.14553226394141211        0.00000000    
  0.14597827762842114       0.14627026964223647        0.00000000    
   0.0000000000000000       0.14645421664062974        0.00000000    
   0.0000000000000000       0.28924286583598524        0.00000000    
 -0.14273582788527533       0.28873975171758659        0.00000000    
 -0.28498077599691407       0.28741370326785698        0.00000000    
 -0.42643001898381377       0.28494984009320234        0.00000000    
 -0.56628310890765376       0.28139143777877035        0.00000000    
 -0.70429068163778952       0.27627912173163449        0.00000000    
 -0.83920640187483664       0.26948309229483847        0.00000000    
 -0.97067539367607603       0.26037142128153806        0.00000000    
  -1.0968415235925233       0.24858448255861745        0.00000000    
  -1.2170287137629625       0.23329024528566691        0.00000000    
  -1.3285771241373521       0.21383509799651507        0.00000000    
  -1.4302050483044864       0.18920187214651185        0.00000000    
  -1.5182579361378956       0.15842968744831951        0.00000000    
  -1.5905269569934215       0.12046754545370865        0.00000000    
  -1.6422959581075345        7.4225749475403460E-002   0.00000000    
  -1.6702159817282940        1.9050246505474717E-002   0.00000000    
  -1.6688231038834114       -4.5625767881158304E-002   0.00000000    
  -1.6338239328731516      -0.11921894913206431        0.00000000    
  -1.5602098558947604      -0.19989380417390656        0.00000000    
  -1.4442762230477817      -0.28527957566590117        0.00000000    
  -1.2832941409732830      -0.36686745998103126        0.00000000    
  -1.0818589431623458      -0.44220038857833099        0.00000000    
 -0.83977081089890737      -0.49896810953286097        0.00000000    
 -0.57714506739627014      -0.53923344172186627        0.00000000    
 -0.29095490572974708      -0.56187776863629757        0.00000000    
  -3.9400277449900241E-003 -0.56746574855358700        0.00000000    
  0.28757859840097255      -0.56406002562085333        0.00000000    
  0.57123622233602522      -0.54154306511570727        0.00000000    
  0.83780025360389376      -0.50426256905271682        0.00000000    
   1.0806892499221470      -0.44678806825995887        0.00000000    
   1.2851364380592190      -0.37314713954115009        0.00000000    
   1.4488511329195519      -0.29095982448497237        0.00000000    
   1.5675002664588540      -0.20549705047316541        0.00000000    
   1.6437695504972767      -0.12372013215073983        0.00000000    
   1.6805179268345205       -4.8923967211073054E-002   0.00000000    
   1.6832767367229668        1.7194193132981875E-002   0.00000000    
   1.6556425040972158        7.3613710817269251E-002   0.00000000    
   1.6039952361191265       0.12088021778025507        0.00000000    
   1.5310430293084816       0.15960950709665236        0.00000000    
   1.4424068164211541       0.19087680978851138        0.00000000    
   1.3396669730781612       0.21587153731594091        0.00000000    
   1.2272178655635144       0.23549362328821136        0.00000000    
   1.1057845513740572       0.25092568832316536        0.00000000    
  0.97859696225280601       0.26272454868859074        0.00000000    
  0.84587938644292160       0.27187610644326582        0.00000000    
  0.70990524473368366       0.27862686447877666        0.00000000    
  0.57069424752603237       0.28374847695108935        0.00000000    
  0.42977169866216675       0.28725199680559554        0.00000000    
  0.28717159399560127       0.28972674593589820        0.00000000    
  0.14384439641920188       0.29100904147305789        0.00000000    
   0.0000000000000000       0.29153811885609082        0.00000000    
   0.0000000000000000       0.43022804606962756        0.00000000    
 -0.13916422194531272       0.42965462131318050        0.00000000    
 -0.27798332743404863       0.42756288727133324        0.00000000    
 -0.41586799307835859       0.42413456471953642        0.00000000    
 -0.55261171144300114       0.41880352143966426        0.00000000    
 -0.68727045341058779       0.41153335276701347        0.00000000    
 -0.81965695422841445       0.40153108231313295        0.00000000    
 -0.94834130044571752       0.38847676928028213        0.00000000    
  -1.0729992190442770       0.37130318307374138        0.00000000    
  -1.1915503895194828       0.34930990541462381        0.00000000    
  -1.3033122675397026       0.32112572626109936        0.00000000    
  -1.4053530194847279       0.28557991999245191        0.00000000    
  -1.4963207958367233       0.24107230378680150        0.00000000    
  -1.5722286383972006       0.18600179252951246        0.00000000    
  -1.6306719070487181       0.11890377216434687        0.00000000    
  -1.6665596195708574        3.8179959957616250E-002   0.00000000    
  -1.6760832512727661       -5.6624727477039935E-002   0.00000000    
  -1.6534498281999859      -0.16585258362115091        0.00000000    
  -1.5929962766904016      -0.28732779817343157        0.00000000    
  -1.4902968631800617      -0.41647862802575880        0.00000000    
  -1.3381669535103957      -0.54878039936584078        0.00000000    
  -1.1353904706837104      -0.66449912983337933        0.00000000    
 -0.89155841306883699      -0.76258955815652441        0.00000000    
 -0.60553648893324685      -0.82425966073885082        0.00000000    
 -0.31149531713157663      -0.85708288308786507        0.00000000    
   8.2094415109646866E-004 -0.87159177337197424        0.00000000    
  0.30724867158821745      -0.85788035438591415        0.00000000    
  0.60579476993026060      -0.82992645863019976        0.00000000    
  0.89001868661980355      -0.76666712349602839        0.00000000    
   1.1356070284931623      -0.67286085201054480        0.00000000    
   1.3406275871542666      -0.55654210258919679        0.00000000    
   1.4948262906629000      -0.42547825980800252        0.00000000    
   1.6007752768420698      -0.29557673486917296        0.00000000    
   1.6636249821987399      -0.17275943715179873        0.00000000    
   1.6882949841902957       -6.1303040539511432E-002   0.00000000    
   1.6794752836583946        3.5634157103016789E-002   0.00000000    
   1.6439975955414068       0.11828566758914860        0.00000000    
   1.5850022431667545       0.18685088135935699        0.00000000    
   1.5086558846104741       0.24293740888354326        0.00000000    
   1.4166559268669328       0.28818507863081322        0.00000000    
   1.3138308641837662       0.32412817449877479        0.00000000    
   1.2008956495914347       0.35262130821075377        0.00000000    
   1.0814265001619698       0.37470046701844339        0.00000000    
  0.95558540229458133       0.39197845698041500        0.00000000    
  0.82593566096728499       0.40498951528745381        0.00000000    
  0.69240463141003650       0.41501862689959390        0.00000000    
  0.55676378854080100       0.42220855460593265        0.00000000    
  0.41892608002203524       0.42755217653195704        0.00000000    
  0.28004690643984576       0.43090584445701213        0.00000000    
  0.14017929317117647       0.43302475379563421        0.00000000    
   0.0000000000000000       0.43354609612256345        0.00000000    
   0.0000000000000000       0.56711730860003928        0.00000000    
 -0.13423872867230283       0.56616830939905216        0.00000000    
 -0.26806734726647619       0.56369692326697307        0.00000000    
 -0.40127437662505955       0.55909222372552492        0.00000000    
 -0.53316736623254157       0.55248257040433524        0.00000000    
 -0.66364995342768807       0.54299563296388131        0.00000000    
 -0.79165047304313696       0.53045582254800350        0.00000000    
 -0.91708799787980710       0.51367390009826897        0.00000000    
  -1.0383886748011670       0.49206464777405667        0.00000000    
  -1.1553460581603763       0.46405699454769778        0.00000000    
  -1.2657192124418404       0.42851366942800062        0.00000000    
  -1.3689516443711651       0.38346516069898123        0.00000000    
  -1.4619105506034977       0.32711374566278473        0.00000000    
  -1.5433202259501928       0.25727786855990870        0.00000000    
  -1.6088882695582003       0.17163900839153398        0.00000000    
  -1.6560771218077006        6.8521288501425817E-002   0.00000000    
  -1.6793732034267288       -5.4146342702000964E-002   0.00000000    
  -1.6742778410867081      -0.19605975380945695        0.00000000    
  -1.6344248194976245      -0.35742720108605253        0.00000000    
  -1.5508547288644485      -0.53264872925692297        0.00000000    
  -1.4215922646987729      -0.71400267197247791        0.00000000    
  -1.2282245170876869      -0.89542108766458561        0.00000000    
 -0.97159228031206413       -1.0321318947185385        0.00000000    
 -0.67797214568497011       -1.1343593829394667        0.00000000    
 -0.33414106767296814       -1.1848554107039191        0.00000000    
   7.6621280257886378E-004  -1.1910427875140801        0.00000000    
  0.34406871247639625       -1.1881595673577803        0.00000000    
  0.67934254460593024       -1.1334671761298860        0.00000000    
  0.97265293516330409       -1.0406607132460535        0.00000000    
   1.2303410089462472      -0.90214367791685490        0.00000000    
   1.4225862288246802      -0.72452505522494881        0.00000000    
   1.5555649194934644      -0.54467270134983781        0.00000000    
   1.6422914194238221      -0.36905777943919077        0.00000000    
   1.6852851664674271      -0.20512184498242167        0.00000000    
   1.6917282264517821       -6.0053694686954033E-002   0.00000000    
   1.6691364786141101        6.5796259619478353E-002   0.00000000    
   1.6213920439440153       0.17134568785776291        0.00000000    
   1.5554426921188249       0.25873556528986585        0.00000000    
   1.4730001524331857       0.32984162319307658        0.00000000    
   1.3793490891214422       0.38693188537570899        0.00000000    
   1.2750106975193163       0.43254482203740596        0.00000000    
   1.1638428042342035       0.46830776854859685        0.00000000    
   1.0457960548690830       0.49652990547351689        0.00000000    
  0.92365797862819921       0.51812819263254561        0.00000000    
  0.79717118001817733       0.53497631957105796        0.00000000    
  0.66831114751746734       0.54742288467279554        0.00000000    
  0.53682505432437799       0.55693123289354896        0.00000000    
  0.40405553684014872       0.56343672424610880        0.00000000    
  0.26988819217218357       0.56806781499157999        0.00000000    
  0.13516291126583807       0.57045567743478220        0.00000000    
   0.0000000000000000       0.57145737691906295        0.00000000    
   0.0000000000000000       0.69813181217532472        0.00000000    
 -0.12787024621291565       0.69726278070760728        0.00000000    
 -0.25548462894461715       0.69404545328299816        0.00000000    
 -0.38235385397817656       0.68881994810018088        0.00000000    
 -0.50839997873881326       0.68069396039658991        0.00000000    
 -0.63283567071507907       0.66970252214148862        0.00000000    
 -0.75570617485381675       0.65461995712346843        0.00000000    
 -0.87584430053553664       0.63508541603954727        0.00000000    
 -0.99335052895307008       0.60946003717066322        0.00000000    
  -1.1065657249543470       0.57683418450982171        0.00000000    
  -1.2155328537245962       0.53507676251670366        0.00000000    
  -1.3179303752570313       0.48253202107015597        0.00000000    
  -1.4135120242287489       0.41658744049491969        0.00000000    
  -1.4990077737302010       0.33470959857388993        0.00000000    
  -1.5733955979901828       0.23416314624497706        0.00000000    
  -1.6320255724811652       0.11181597738625997        0.00000000    
  -1.6722946750454544       -3.3875847403871187E-002   0.00000000    
  -1.6881861960928539      -0.20553409040261583        0.00000000    
  -1.6745711808748063      -0.40142090130013053        0.00000000    
  -1.6236849781072831      -0.62311132244617973        0.00000000    
  -1.5201825755830229      -0.85630494547298519        0.00000000    
  -1.3729628455833778       -1.0937062917777167        0.00000000    
  -1.1316922002561642       -1.3317495727077950        0.00000000    
 -0.79284578054118493       -1.4672082592956224        0.00000000    
 -0.42871259183374943       -1.5599708010666768        0.00000000    
   1.8892008169553793E-002  -1.5984392776338734        0.00000000    
  0.44023593697643293       -1.5454095057182458        0.00000000    
  0.80138245550768350       -1.4726375884336562        0.00000000    
   1.1383142497088974       -1.3317324857004504        0.00000000    
   1.3693235917538658       -1.0997693212933566        0.00000000    
   1.5199755904771421      -0.86979663044985234        0.00000000    
   1.6272631457573439      -0.63966737207664137        0.00000000    
   1.6833758034443125      -0.41690226632967631        0.00000000    
   1.6999129767404599      -0.21680827843418227        0.00000000    
   1.6851578272427261       -4.0055171722048422E-002   0.00000000    
   1.6441029035673920       0.10944440816528724        0.00000000    
   1.5850004231564268       0.23454445439254742        0.00000000    
   1.5094318699250220       0.33705470380956282        0.00000000    
   1.4232843338857246       0.42011256039766032        0.00000000    
   1.3266372586240684       0.48695908674256644        0.00000000    
   1.2235798826432518       0.53991338825267843        0.00000000    
   1.1136413269884040       0.58204565127146135        0.00000000    
  0.99975161414637181       0.61472848495686061        0.00000000    
  0.88132951746482358       0.64048978606992579        0.00000000    
  0.76049238589192203       0.65993865631554316        0.00000000    
  0.63674564123031629       0.67506732508902068        0.00000000    
  0.51158427358106073       0.68593425331851021        0.00000000    
  0.38469634840503758       0.69409114647988990        0.00000000    
  0.25707465851189376       0.69920242731765758        0.00000000    
  0.12865042614875138       0.70247057837676874        0.00000000    
   0.0000000000000000       0.70325581339032839        0.00000000    
   0.0000000000000000       0.82239189074019403        0.00000000    
 -0.12020688015141262       0.82107982850572492        0.00000000    
 -0.24008752847994391       0.81772343654367230        0.00000000    
 -0.35952519982051090       0.81144886121239301        0.00000000    
 -0.47794939931990049       0.80253537154285992        0.00000000    
 -0.59542880466054982       0.78977620831100082        0.00000000    
 -0.71110143502995637       0.77308940546044624        0.00000000    
 -0.82520534969896042       0.75085800805227898        0.00000000    
 -0.93652232098226140       0.72251064485698857        0.00000000    
  -1.0454402101189944       0.68591666196062628        0.00000000    
  -1.1502853292583475       0.63980653297358270        0.00000000    
  -1.2515288290066857       0.58144327189333056        0.00000000    
  -1.3468551332106709       0.50858414284536202        0.00000000    
  -1.4365737292831275       0.41792724179682805        0.00000000    
  -1.5173130867346396       0.30607268473125154        0.00000000    
  -1.5885351608068978       0.16975848746293043        0.00000000    
  -1.6450108596867368        4.9264439610755863E-003   0.00000000    
  -1.6843033513936581      -0.18915236901325488        0.00000000    
  -1.7000221041683425      -0.41569888513562775        0.00000000    
  -1.6883148814758524      -0.67142676407036883        0.00000000    
  -1.6364508260413888      -0.96335596181056760        0.00000000    
  -1.5200985601070860       -1.2502272713733882        0.00000000    
  -1.3868521493518637       -1.5497456491979515        0.00000000    
  -1.1413811255562265       -1.8335296263149605        0.00000000    
 -0.67376023902847781       -2.0254035092867726        0.00000000    
   3.2963526492084498E-002  -2.2873349349367684        0.00000000    
  0.72865149246358030       -1.9735457431982530        0.00000000    
   1.1495243972915083       -1.8265207743120289        0.00000000    
   1.3763003760915240       -1.5415570728267542        0.00000000    
   1.5128392832724931       -1.2574929833921094        0.00000000    
   1.6313778905347787      -0.98126357433982880        0.00000000    
   1.6918620359890320      -0.69597212892058613        0.00000000    
   1.7109996848169198      -0.43584781600345723        0.00000000    
   1.6973057038242230      -0.20070592106370100        0.00000000    
   1.6565357753224983       -6.3245109569138279E-004   0.00000000    
   1.5992623641485841       0.16835002238801100        0.00000000    
   1.5264912915373057       0.30751239318967788        0.00000000    
   1.4450906567532551       0.42105595302746629        0.00000000    
   1.3543255031437982       0.51302400082632738        0.00000000    
   1.2584980226187146       0.58652220210001249        0.00000000    
   1.1564354450664998       0.64547022642625584        0.00000000    
   1.0511217490778550       0.69174106474058217        0.00000000    
  0.94146681246505703       0.72857772094071294        0.00000000    
  0.82965473532915957       0.75687472390257760        0.00000000    
  0.71484373664885781       0.77920184873436948        0.00000000    
  0.59863299027058647       0.79576162370900283        0.00000000    
  0.48046401200229116       0.80857030061447122        0.00000000    
  0.36145947424961494       0.81734756211144610        0.00000000    
  0.24135106254429142       0.82367611328307022        0.00000000    
  0.12085365169052641       0.82691853562697248        0.00000000    
   0.0000000000000000       0.82831193397800840        0.00000000    
   0.0000000000000000       0.93798638927282862        0.00000000    
 -0.11120582447478920       0.93689803459788867        0.00000000    
 -0.22221844315350406       0.93279849745746624        0.00000000    
 -0.33262921026125258       0.92622223874539422        0.00000000    
 -0.44245447385983150       0.91601145710665877        0.00000000    
 -0.55105051307374042       0.90237556730011681        0.00000000    
 -0.65865605164753560       0.88376821541349293        0.00000000    
 -0.76436135098133962       0.85998841210026278        0.00000000    
 -0.86866346697918051       0.82899932808925136        0.00000000    
 -0.97034056539112934       0.79002296627511559        0.00000000    
  -1.0702001856477996       0.74040496805438993        0.00000000    
  -1.1666240053459409       0.67851215625689543        0.00000000    
  -1.2607407248528617       0.60095828219217606        0.00000000    
  -1.3503227125733401       0.50485368624063065        0.00000000    
  -1.4365635480554872       0.38612643322082491        0.00000000    
  -1.5159751281894891       0.24033839317704786        0.00000000    
  -1.5888184282841944        6.3665537221519575E-002   0.00000000    
  -1.6486182681924784      -0.14879913066135225        0.00000000    
  -1.6936851686187022      -0.39526647028623124        0.00000000    
  -1.7183745560341004      -0.67887701420004687        0.00000000    
  -1.7258034816465415       -1.0003408415020598        0.00000000    
  -1.6907641107647424       -1.3646340285014573        0.00000000    
  -1.5886730297924836       -1.6706763837960628        0.00000000    
  -1.4409752930179642       -2.1057676522908721        0.00000000    
  -1.7311892981832231       -1.9305723646685913        0.00000000    
  -2.0921902334263786E-002  -4.7991572439313002        0.00000000    
   1.6705954021777225       -1.8489287041228615        0.00000000    
   1.4077557387623538       -2.1091710548043920        0.00000000    
   1.5804130308255220       -1.6583400631959322        0.00000000    
   1.6724793402521656       -1.3693152096342351        0.00000000    
   1.7177865721650725       -1.0332871872717295        0.00000000    
   1.7281267284142559      -0.71477281769539913        0.00000000    
   1.7074693121186688      -0.41552735976031724        0.00000000    
   1.6591540476998636      -0.15901713189832997        0.00000000    
   1.5979303040967783        5.9672431843926239E-002   0.00000000    
   1.5229106375101173       0.24033821720626328        0.00000000    
   1.4428755577122589       0.38833035078040984        0.00000000    
   1.3556670799341830       0.50884710799641875        0.00000000    
   1.2658269611498667       0.60583811825073575        0.00000000    
   1.1711232017840099       0.68423932456432557        0.00000000    
   1.0745064896750309       0.74643239362251224        0.00000000    
  0.97415398976557777       0.79644509344039549        0.00000000    
  0.87224060621047461       0.83544201240799554        0.00000000    
  0.76745151874384698       0.86661159703595458        0.00000000    
  0.66143798380967955       0.89028950921450178        0.00000000    
  0.55333349511813590       0.90898919829696490        0.00000000    
  0.44436019766594059       0.92248500174590109        0.00000000    
  0.33403049969993109       0.93276709669711277        0.00000000    
  0.22318696312271927       0.93920852697871304        0.00000000    
  0.11167821167436642       0.94339228423198163        0.00000000    
   0.0000000000000000       0.94437004873654506        0.00000000    
   0.0000000000000000        1.0443882838819407        0.00000000    
 -0.10107177905500805        1.0427737435172217        0.00000000    
 -0.20185458769193748        1.0387182158522965        0.00000000    
 -0.30226606045912635        1.0311247602242812        0.00000000    
 -0.40181374211163434        1.0204818808772427        0.00000000    
 -0.50064551965224036        1.0053329602829659        0.00000000    
 -0.59805638542356421       0.98582722677400292        0.00000000    
 -0.69448093189144844       0.96005924654051111        0.00000000    
 -0.78898450619265914       0.92773418394613427        0.00000000    
 -0.88239248430680828       0.88637318694357459        0.00000000    
 -0.97351206503396592       0.83503394836765399        0.00000000    
  -1.0637164604798075       0.77051139108706290        0.00000000    
  -1.1514880071242144       0.69084731351101258        0.00000000    
  -1.2388932005379756       0.59195183605572799        0.00000000    
  -1.3238554400786018       0.47023135842591401        0.00000000    
  -1.4088797682740251       0.32066937630138453        0.00000000    