 <VTKFile type="UnstructuredGrid" version="0.1" byte_order="BigEndian">
 <UnstructuredGrid>
 <Piece NumberOfPoints="        2601 " NumberOfCells="        2500 ">
 <PointData Scalars="scalars">
 <DataArray type="Float32" NumberOfComponents="3" Name="Velocity" Format="ascii">
   0.0000000000000000        0.0000000000000000        0.00000000    
  -9.2634658223808522E-002   0.0000000000000000        0.00000000    
 -0.18422891584025877        0.0000000000000000        0.00000000    
 -0.27390392215270937        0.0000000000000000        0.00000000    
 -0.36043685444677215        0.0000000000000000        0.00000000    
 -0.44308697622591436        0.0000000000000000        0.00000000    
 -0.52044096541087803        0.0000000000000000        0.00000000    
 -0.59188083480792875        0.0000000000000000        0.00000000    
 -0.65581843456153432        0.0000000000000000        0.00000000    
 -0.71176310443630852        0.0000000000000000        0.00000000    
 -0.75800340578103165        0.0000000000000000        0.00000000    
 -0.79421301372930764        0.0000000000000000        0.00000000    
 -0.81865668682289028        0.0000000000000000        0.00000000    
 -0.83125149497027617        0.0000000000000000        0.00000000    
 -0.83039408690926675        0.0000000000000000        0.00000000    
 -0.81636550799935004        0.0000000000000000        0.00000000    
 -0.78790355971416293        0.0000000000000000        0.00000000    
 -0.74579487292516877        0.0000000000000000        0.00000000    
 -0.68935803886858438        0.0000000000000000        0.00000000    
 -0.62000042090564622        0.0000000000000000        0.00000000    
 -0.53783964203355616        0.0000000000000000        0.00000000    
 -0.44492367299852958        0.0000000000000000        0.00000000    
 -0.34228951837937954        0.0000000000000000        0.00000000    
 -0.23248729128765838        0.0000000000000000        0.00000000    
 -0.11742171067547928        0.0000000000000000        0.00000000    
   1.6600194961922414E-004   0.0000000000000000        0.00000000    
  0.11775257126867759        0.0000000000000000        0.00000000    
  0.23282428292431120        0.0000000000000000        0.00000000    
  0.34262938416099314        0.0000000000000000        0.00000000    
  0.44528062781418604        0.0000000000000000        0.00000000    
  0.53820680871834059        0.0000000000000000        0.00000000    
  0.62040166944543118        0.0000000000000000        0.00000000    
  0.68977914327558210        0.0000000000000000        0.00000000    
  0.74626689209364494        0.0000000000000000        0.00000000    
  0.78840163979869371        0.0000000000000000        0.00000000    
  0.81692270506841780        0.0000000000000000        0.00000000    
  0.83097418343725804        0.0000000000000000        0.00000000    
  0.83188488803541671        0.0000000000000000        0.00000000    
  0.81929839771042545        0.0000000000000000        0.00000000    
  0.79488835430599381        0.0000000000000000        0.00000000    
  0.75866360084413487        0.0000000000000000        0.00000000    
  0.71242797859895468        0.0000000000000000        0.00000000    
  0.65644095796215940        0.0000000000000000        0.00000000    
  0.59247592283755435        0.0000000000000000        0.00000000    
  0.52096804165211852        0.0000000000000000        0.00000000    
  0.44355675034570280        0.0000000000000000        0.00000000    
  0.36081849256585080        0.0000000000000000        0.00000000    
  0.27420439633129107        0.0000000000000000        0.00000000    
  0.18442908909556988        0.0000000000000000        0.00000000    
   9.2737981564935762E-002   0.0000000000000000        0.00000000    
   0.0000000000000000        0.0000000000000000        0.00000000    
   0.0000000000000000        9.2884097966483226E-002   0.00000000    
  -9.2656105460679788E-002   9.2407999677886946E-002   0.00000000    
 -0.18436130456060743        9.0892790809809762E-002   0.00000000    
 -0.27399092778086614        8.8413172144217358E-002   0.00000000    
 -0.36074366262009161        8.4873827849187636E-002   0.00000000    
 -0.44330452443960100        8.0338487917967452E-002   0.00000000    
 -0.52100009709242967        7.4712405168780124E-002   0.00000000    
 -0.59232644275341695        6.8055140123417110E-002   0.00000000    
 -0.65672990123735331        6.0287247096886723E-002   0.00000000    
 -0.71254834344785356        5.1477192664784698E-002   0.00000000    
 -0.75936577143644568        4.1581862804114196E-002   0.00000000    
 -0.79543454385612888        3.0697842150485471E-002   0.00000000    
 -0.82053246906800059        1.8845078974211837E-002   0.00000000    
 -0.83295228037719649        6.1708615807995471E-003   0.00000000    
 -0.83276659730429192       -7.2126335229241228E-003   0.00000000    
 -0.81849239130425488       -2.1088833992591160E-002   0.00000000    
 -0.79063485331189487       -3.5229336822544477E-002   0.00000000    
 -0.74816663196883926       -4.9346257601738823E-002   0.00000000    
 -0.69216691777357575       -6.3088978761900560E-002   0.00000000    
 -0.62230715137842196       -7.6127095283387014E-002   0.00000000    
 -0.54032423935584273       -8.8015286853304578E-002   0.00000000    
 -0.44677662241578525       -9.8446991619942678E-002   0.00000000    
 -0.34401035299767430      -0.10695212605688377        0.00000000    
 -0.23352001849298260      -0.11333912999233040        0.00000000    
 -0.11803109168004465      -0.11721407249280842        0.00000000    
   1.7697346410953769E-004 -0.11858040062121798        0.00000000    
  0.11838754998001490      -0.11721544056312615        0.00000000    
  0.23387650750807606      -0.11334392369569812        0.00000000    
  0.34437599188774526      -0.10695935639722264        0.00000000    
  0.44714692376087556       -9.8461512803302606E-002   0.00000000    
  0.54071799965839984       -8.8034436538274821E-002   0.00000000    
  0.62271453962941403       -7.6155655454881316E-002   0.00000000    
  0.69261629787789813       -6.3122266368794436E-002   0.00000000    
  0.74863883619162730       -4.9386708944016748E-002   0.00000000    
  0.79116317509550693       -3.5271064028583737E-002   0.00000000    
  0.81904596100917570       -2.1131471774730348E-002   0.00000000    
  0.83337806434988970       -7.2507926224404254E-003   0.00000000    
  0.83358008116154636        6.1393903125265990E-003   0.00000000    
  0.82120491016669572        1.8823592016133348E-002   0.00000000    
  0.79610353054184657        3.0689153734395447E-002   0.00000000    
  0.76005402240135733        4.1586432360156231E-002   0.00000000    
  0.71320686749103557        5.1497670829717304E-002   0.00000000    
  0.65737612332460771        6.0321421552757326E-002   0.00000000    
  0.59291578916639243        6.8105276610487986E-002   0.00000000    
  0.52154544208612086        7.4774281790920674E-002   0.00000000    
  0.44376971420620981        8.0414068542180861E-002   0.00000000    
  0.36113761501504421        8.4957620498301897E-002   0.00000000    
  0.27428844074802416        8.8506982761969305E-002   0.00000000    
  0.18456765341904280        9.0990445124653027E-002   0.00000000    
   9.2758404815937404E-002   9.2511244679843507E-002   0.00000000    
   0.0000000000000000        9.2986475561048915E-002   0.00000000    
   0.0000000000000000       0.18588844881870387        0.00000000    
  -9.2796565787700111E-002  0.18485759233630078        0.00000000    
 -0.18457433557897812       0.18192743914142626        0.00000000    
 -0.27447792416682659       0.17691300731528178        0.00000000    
 -0.36130138278330698       0.16995145734159234        0.00000000    
 -0.44432617269696567       0.16084778056755553        0.00000000    
 -0.52214770705730673       0.14972148914229408        0.00000000    
 -0.59416482549152738       0.13639078868219576        0.00000000    
 -0.65878547003515098       0.12097696891340924        0.00000000    
 -0.71552516655477771       0.10334687541454940        0.00000000    
 -0.76265034771885776        8.3656053699273328E-002   0.00000000    
 -0.79982478390544554        6.1868122557487776E-002   0.00000000    
 -0.82526729808081500        3.8216499106686286E-002   0.00000000    
 -0.83886615222016980        1.2819366045638428E-002   0.00000000    
 -0.83894521643063569       -1.3966499366996564E-002   0.00000000    
 -0.82574221259542480       -4.1810922605488791E-002   0.00000000    
 -0.79789916704767938       -7.0206578056651883E-002   0.00000000    
 -0.75616069212243731       -9.8574461014012404E-002   0.00000000    
 -0.69974254701024985      -0.12627738461698335        0.00000000    
 -0.63003807980969484      -0.15250167486091154        0.00000000    
 -0.54708506965740755      -0.17657538263295880        0.00000000    
 -0.45297267313779355      -0.19754566399304174        0.00000000    
 -0.34871671717320701      -0.21487443474247842        0.00000000    
 -0.23697196365174317      -0.22765066599435690        0.00000000    
 -0.11970077869846639      -0.23566140543986563        0.00000000    
   2.1363192988249648E-004 -0.23825430097495578        0.00000000    
  0.12012690815904507      -0.23566415048852876        0.00000000    
  0.23739936277326912      -0.22765538310915437        0.00000000    
  0.34914249702638300      -0.21488927230429228        0.00000000    
  0.45340852192168501      -0.19756730937228845        0.00000000    
  0.54752501867088976      -0.17661496735585744        0.00000000    
  0.63050637793636699      -0.15255177710375808        0.00000000    
  0.70022573060936211      -0.12634600754407102        0.00000000    
  0.75669188961643585       -9.8650415110914574E-002   0.00000000    
  0.79845328093453782       -7.0291836543604408E-002   0.00000000    
  0.82635448280403279       -4.1893433422498225E-002   0.00000000    
  0.83957798750269108       -1.4043183729750478E-002   0.00000000    
  0.83955134337093407        1.2757666141866526E-002   0.00000000    
  0.82595785690855494        3.8175232690886671E-002   0.00000000    
  0.80054694212122335        6.1851068536767716E-002   0.00000000    
  0.76335337442426554        8.3668855985090246E-002   0.00000000    
  0.71622953541744883       0.10338750552292635        0.00000000    
  0.65944277217809966       0.12105035999424626        0.00000000    
  0.59479055811740222       0.13649015364186964        0.00000000    
  0.52270054487981077       0.14985103340798117        0.00000000    
  0.44481735344526968       0.16099750575397206        0.00000000    
  0.36169977567480205       0.17012513055225018        0.00000000    
  0.27479090773085457       0.17709878602973808        0.00000000    
  0.18478270289584414       0.18212890561289974        0.00000000    
   9.2903988479126648E-002  0.18506201921165497        0.00000000    
   0.0000000000000000       0.18609936648611938        0.00000000    
   0.0000000000000000       0.27894789783681900        0.00000000    
  -9.2946785006927032E-002  0.27754270488070881        0.00000000    
 -0.18498860741032611       0.27306312934161714        0.00000000    
 -0.27504023651566967       0.26573374505448599        0.00000000    
 -0.36234725727321510       0.25526240857335025        0.00000000    
 -0.44562175466560761       0.24183732563687765        0.00000000    
 -0.52423128015359310       0.22516421185058880        0.00000000    
 -0.59667894362751916       0.20541405492408321        0.00000000    
 -0.66243675643643052       0.18233336561138974        0.00000000    
 -0.71981946778927131       0.15611409102740856        0.00000000    
 -0.76841003504124128       0.12660578914142520        0.00000000    
 -0.80639573736773773        9.4079726896018054E-002   0.00000000    
 -0.83351667060930112        5.8569541374863691E-002   0.00000000    
 -0.84794845185032452        2.0498156814113239E-002   0.00000000    
 -0.84968852732507993       -1.9824955056005511E-002   0.00000000    
 -0.83708308706043266       -6.1759717232660175E-002   0.00000000    
 -0.81054330903488536      -0.10463941553810660        0.00000000    
 -0.76883443307411503      -0.14758778453205018        0.00000000    
 -0.71296707327500919      -0.18954837833786101        0.00000000    
 -0.64241439960429203      -0.22948663575801465        0.00000000    
 -0.55893103535807231      -0.26602561180052098        0.00000000    
 -0.46295830235228447      -0.29817938114806325        0.00000000    
 -0.35699121104844023      -0.32446258308046644        0.00000000    
 -0.24255588310005644      -0.34424141808205733        0.00000000    
 -0.12264329933657149      -0.35625324179062423        0.00000000    
   2.7537358973638590E-004 -0.36049436815691221        0.00000000    
  0.12319100490256325      -0.35625181083063151        0.00000000    
  0.24309819246562336      -0.34424618468266438        0.00000000    
  0.35752901811796689      -0.32447124961451462        0.00000000    
  0.46348852831218945      -0.29820968541490483        0.00000000    
  0.55947054380969152      -0.26606992039569255        0.00000000    
  0.64295543022259338      -0.22956188546909662        0.00000000    
  0.71354121683291927      -0.18963985226124108        0.00000000    
  0.76942326252125381      -0.14770358749698351        0.00000000    
  0.81118496555325703      -0.10476056868522590        0.00000000    
  0.83774486019375294       -6.1884606421846171E-002   0.00000000    
  0.85040691946277469       -1.9936380987706212E-002   0.00000000    
  0.84867803622330618        2.0407586059223368E-002   0.00000000    
  0.83428810355886562        5.8509929476489184E-002   0.00000000    
  0.80715664095584649        9.4059948219644363E-002   0.00000000    
  0.76918461710471808       0.12662676903291781        0.00000000    
  0.72055535160564144       0.15618389950668196        0.00000000    
  0.66315260228484574       0.18244468292057972        0.00000000    
  0.59732814019119984       0.20557371234507832        0.00000000    
  0.52482785763119433       0.22535897745330333        0.00000000    
  0.44612864303984501       0.24207317555445745        0.00000000    
  0.36277435139398923       0.25552253906958666        0.00000000    
  0.27536207142051911       0.26602373492086334        0.00000000    
  0.18521110909306218       0.27336433403435267        0.00000000    
   9.3057047286949066E-002  0.27786057746063680        0.00000000    
   0.0000000000000000       0.27926305467210455        0.00000000    
   0.0000000000000000       0.37230461154308930        0.00000000    
  -9.3152722611089353E-002  0.37028664821848734        0.00000000    
 -0.18535202046660229       0.36456145554722347        0.00000000    
 -0.27581375563807858       0.35474993194252658        0.00000000    
 -0.36338382560416138       0.34112446080268932        0.00000000    
 -0.44741237108033266       0.32327946374362287        0.00000000    
 -0.52652374033623128       0.30144411525639697        0.00000000    
 -0.60017123560531471       0.27523045566501508        0.00000000    
 -0.66675581616194080       0.24486050267779697        0.00000000    
 -0.72581724703807782       0.21003223886233349        0.00000000    
 -0.77556214411655022       0.17102424710863773        0.00000000    
 -0.81563007658009601       0.12771604307028669        0.00000000    
 -0.84410903062922937        8.0534250445500444E-002   0.00000000    
 -0.86080230539405578        2.9659639312333005E-002   0.00000000    
 -0.86381945385055259       -2.4228079587526940E-002   0.00000000    
 -0.85326100483240774       -8.0519350496999043E-002   0.00000000    
 -0.82747701780479754      -0.13820241740396522        0.00000000    
 -0.78706863188200116      -0.19614091717821872        0.00000000    
 -0.73092392046217536      -0.25300619102070104        0.00000000    
 -0.66037333739383086      -0.30713095628128145        0.00000000    
 -0.57518314349081956      -0.35705372716102612        0.00000000    
 -0.47755795611046248      -0.40074806584131156        0.00000000    
 -0.36842234506388344      -0.43699548133351851        0.00000000    
 -0.25076437124727308      -0.46380070347015967        0.00000000    
 -0.12671906243899664      -0.48065073134290498        0.00000000    
   3.6360048729892739E-004 -0.48609709727810446        0.00000000    
  0.12744487809890975      -0.48064487346054785        0.00000000    
  0.25147407937707345      -0.46378839327651566        0.00000000    
  0.36911403370355156      -0.43699870290431320        0.00000000    
  0.47823509136197334      -0.40076168060411282        0.00000000    
  0.57584303143094595      -0.35710676049379958        0.00000000    
  0.66104251498062050      -0.30720829311259362        0.00000000    
  0.73159175690621792      -0.25312734969749084        0.00000000    
  0.78777589447049445      -0.19628114747972905        0.00000000    
  0.82819777810256878      -0.13836546809144618        0.00000000    
  0.85403772973940972       -8.0678423435923158E-002   0.00000000    
  0.86460956714779125       -2.4375329274415800E-002   0.00000000    
  0.86164232654601458        2.9543792149339349E-002   0.00000000    
  0.84494514737239168        8.0461970669363531E-002   0.00000000    
  0.81649120751978188       0.12769444735792387        0.00000000    
  0.77639155627934875       0.17106508421706354        0.00000000    
  0.72663742880772564       0.21013011868223538        0.00000000    
  0.66751441021684077       0.24502537420982098        0.00000000    
  0.60088562539091162       0.27544741233122960        0.00000000    
  0.52715065511543679       0.30172167559081225        0.00000000    
  0.44796475133243280       0.32359674247086256        0.00000000    
  0.36382990567074608       0.34148925681752801        0.00000000    
  0.27616219634782085       0.35513815477060340        0.00000000    
  0.18558355919185218       0.36498066237927579        0.00000000    
   9.3271712740943175E-002  0.37071130656091045        0.00000000    
   0.0000000000000000       0.37274223492506070        0.00000000    
   0.0000000000000000       0.46564012804607774        0.00000000    
  -9.3270654423358412E-002  0.46337559706901560        0.00000000    
 -0.18572912483831783       0.45613136303440988        0.00000000    
 -0.27637034526767956       0.44428406786090108        0.00000000    
 -0.36453613862582002       0.42732727526174563        0.00000000    
 -0.44899624159406598       0.40556638425803460        0.00000000    
 -0.52920589533606632       0.37847930303053151        0.00000000    
 -0.60368949459091270       0.34632744692337036        0.00000000    
 -0.67198027801966453       0.30863995821247270        0.00000000    
 -0.73235816053799985       0.26569317850036750        0.00000000    
 -0.78441639468674240       0.21716751835328907        0.00000000    
 -0.82622645266956707       0.16345184067457894        0.00000000    
 -0.85746214815269106       0.10451417829501494        0.00000000    
 -0.87607788542824183        4.0989797993586784E-002   0.00000000    
 -0.88191706650282620       -2.6700836991242559E-002   0.00000000    
 -0.87298722940043183       -9.7533809002379013E-002   0.00000000    
 -0.84948657963476004      -0.17047152834950841        0.00000000    
 -0.80974489628805435      -0.24402080969197981        0.00000000    
 -0.75459250189898663      -0.31642234130907931        0.00000000    
 -0.68305236415331205      -0.38580446519723760        0.00000000    
 -0.59687757320742463      -0.44974414397512252        0.00000000    
 -0.49620468730998313      -0.50635466430897180        0.00000000    
 -0.38383472860647627      -0.55289339651448710        0.00000000    
 -0.26131881627023923      -0.58807561906856742        0.00000000    
 -0.13224838288973512      -0.60949050359309953        0.00000000    
   4.8764957291094768E-004 -0.61707496633090719        0.00000000    
  0.13320645551410737      -0.60946603388044285        0.00000000    
  0.26225660254170990      -0.58804552683862799        0.00000000    
  0.38473302277847821      -0.55285688855538706        0.00000000    
  0.49706380448655818      -0.50635427826097190        0.00000000    
  0.59771155780511620      -0.44976879826595406        0.00000000    
  0.68385903673762016      -0.38589215877444277        0.00000000    
  0.75541320607923490      -0.31654583374254741        0.00000000    
  0.81056318412164829      -0.24419571613020707        0.00000000    
  0.85035254756643031      -0.17066108076689329        0.00000000    
  0.87386351978339261       -9.7732667386178279E-002   0.00000000    
  0.88284836014843904       -2.6876692953152589E-002   0.00000000    
  0.87700967470290037        4.0852153496560087E-002   0.00000000    
  0.85842958340243147       0.10443195421392686        0.00000000    
  0.82716791652587118       0.16344114633476547        0.00000000    
  0.78535908007168831       0.21722795126048750        0.00000000    
  0.73324308987095610       0.26583844883857088        0.00000000    
  0.67282885258929492       0.30885538162381337        0.00000000    
  0.60445161442599293       0.34662451059063309        0.00000000    
  0.52989818545164036       0.37883406100584477        0.00000000    
  0.44958039154793389       0.40598913991597846        0.00000000    
  0.36502416406195631       0.42778901896127902        0.00000000    
  0.27673666250017442       0.44479469045437786        0.00000000    
  0.18598102240264325       0.45665949166132952        0.00000000    
   9.3395381245596598E-002  0.46393105285029895        0.00000000    
   0.0000000000000000       0.46619067084357990        0.00000000    
   0.0000000000000000       0.55926285147097410        0.00000000    
  -9.3321323035949755E-002  0.55634587844684391        0.00000000    
 -0.18579897866606446       0.54809823492400944        0.00000000    
 -0.27676931119759418       0.53392977561488597        0.00000000    
 -0.36516766328356570       0.51424673927018549        0.00000000    
 -0.45046453259756791       0.48840491777763306        0.00000000    
 -0.53134058677511498       0.45672750206595136        0.00000000    
 -0.60735257062061010       0.41857585403384040        0.00000000    
 -0.67690492105810007       0.37423570715654475        0.00000000    
 -0.73959747904923301       0.32316889017474149        0.00000000    
 -0.79355923117534355       0.26571281196492086        0.00000000    
 -0.83841075007303956       0.20156914043257973        0.00000000    
 -0.87204714375940962       0.13126998287974281        0.00000000    
 -0.89413958654976666        5.4943185757407059E-002   0.00000000    
 -0.90245910706232912       -2.6494512369241066E-002   0.00000000    
 -0.89685670568094056      -0.11227136445491376        0.00000000    
 -0.87518953114802622      -0.20090079110686687        0.00000000    
 -0.83775855981084246      -0.29076319876079698        0.00000000    
 -0.78284834778472334      -0.37974155731623438        0.00000000    
 -0.71160346142266029      -0.46526927503301130        0.00000000    
 -0.62322137403061484      -0.54483521553313974        0.00000000    
 -0.52005986730121112      -0.61509699103257132        0.00000000    
 -0.40277348400424046      -0.67380641842091893        0.00000000    
 -0.27497565993260109      -0.71747534196564478        0.00000000    
 -0.13907443212901710      -0.74506145079217445        0.00000000    
   6.3992296307446741E-004 -0.75395341623319267        0.00000000    
  0.14035131521077962      -0.74501679171592561        0.00000000    
  0.27619604281497528      -0.71738865256446771        0.00000000    
  0.40393663519009249      -0.67372978386603199        0.00000000    
  0.52115361570812924      -0.61502815183777637        0.00000000    
  0.62425084327276226      -0.54483891128779049        0.00000000    
  0.71260433970050230      -0.46532202421206365        0.00000000    
  0.78381679120078640      -0.37988159097401036        0.00000000    
  0.83875363574803496      -0.29094578020255579        0.00000000    
  0.87618317924049893      -0.20112892089127221        0.00000000    
  0.89790539635550815      -0.11249701056655317        0.00000000    
  0.90350954914582160       -2.6700335407980603E-002   0.00000000    
  0.89523568140843746        5.4789359865635649E-002   0.00000000    
  0.87312196193394853       0.13118957076278451        0.00000000    
  0.83949743931363341       0.20157073438454196        0.00000000    
  0.79459084851082773       0.26581480681787228        0.00000000    
  0.74060024152722770       0.32335920940183543        0.00000000    
  0.67782076394921997       0.37452935589567998        0.00000000    
  0.60820256845435683       0.41894699208692832        0.00000000    
  0.53207932149527470       0.45718927836288653        0.00000000    
  0.45110814002927752       0.48892392248170069        0.00000000    
  0.36568416202323123       0.51483546701644645        0.00000000    
  0.27716963890312374       0.53455129331200424        0.00000000    
  0.18606426156534728       0.54876493281337158        0.00000000    
   9.3457078489697309E-002  0.55701946305990324        0.00000000    
   0.0000000000000000       0.55995574761227929        0.00000000    
   0.0000000000000000       0.65253291331927354        0.00000000    
  -9.3127647672484715E-002  0.64952575394536738        0.00000000    
 -0.18558241024634115       0.63985174397842515        0.00000000    
 -0.27648063923567140       0.62404579420856654        0.00000000    
 -0.36531239357805911       0.60136179236621790        0.00000000    
 -0.45094058736761516       0.57221589259740102        0.00000000    
 -0.53296441708907760       0.53581737452314471        0.00000000    
 -0.60995630484820351       0.49249081587329790        0.00000000    
 -0.68156563414390059       0.44148338575621765        0.00000000    
 -0.74604770078321792       0.38309679597989232        0.00000000    
 -0.80304549208761744       0.31674540685712360        0.00000000    
 -0.85049408863322240       0.24283761707310667        0.00000000    
 -0.88799897523181703       0.16114373963676332        0.00000000    
 -0.91322131528233774        7.2385163551811016E-002   0.00000000    
 -0.92577396766565734       -2.3063368917790709E-002   0.00000000    
 -0.92317820877846812      -0.12389972139262244        0.00000000    
 -0.90525270678301262      -0.22886416752331873        0.00000000    
 -0.86964379714890938      -0.33583876176482097        0.00000000    
 -0.81678857833658980      -0.44243048724311695        0.00000000    
 -0.74490547513385197      -0.54570739828476234        0.00000000    
 -0.65562264556156558      -0.64206107621961972        0.00000000    
 -0.54840265925282661      -0.72825169159956171        0.00000000    
 -0.42651149325696436      -0.79982833801225084        0.00000000    
 -0.29138607028219321      -0.85437574109312620        0.00000000    
 -0.14773113936828766      -0.88771628354086229        0.00000000    
   8.5120909675433156E-004 -0.89959436047690522        0.00000000    
  0.14938480322109648      -0.88761990729236306        0.00000000    
  0.29298379357020993      -0.85422832811124483        0.00000000    
  0.42799277840247318      -0.79963875722680167        0.00000000    
  0.54977507796215641      -0.72811752946555175        0.00000000    
  0.65690131352923964      -0.64197206504546767        0.00000000    
  0.74610121025230469      -0.54574133066291686        0.00000000    
  0.81796851799043691      -0.44254110742351493        0.00000000    
  0.87079534932623415      -0.33604900184644376        0.00000000    
  0.90644969187852764      -0.22910864379803592        0.00000000    
  0.92437267679850488      -0.12416154666161269        0.00000000    
  0.92702294716399558       -2.3289275749327952E-002   0.00000000    
  0.91445273511516334        7.2223328191393044E-002   0.00000000    
  0.88925386587441302       0.16106914279604209        0.00000000    
  0.85169568359571723       0.24287482021059878        0.00000000    
  0.80422580019131251       0.31688815121894354        0.00000000    
  0.74713886183394929       0.38336436746247848        0.00000000    
  0.68259408972428659       0.44184940722462562        0.00000000    
  0.61086849704716162       0.49297168949950182        0.00000000    
  0.53378155239086289       0.53637573518136927        0.00000000    
  0.45162400457162866       0.57286715820092615        0.00000000    
  0.36587756247965991       0.60206361612599135        0.00000000    
  0.27690274944133031       0.62481344550762907        0.00000000    
  0.18587082999896454       0.64064104343721728        0.00000000    
   9.3270291980187534E-002  0.65035203977489320        0.00000000    
   0.0000000000000000       0.65335150790994989        0.00000000    
   0.0000000000000000       0.74578248152575277        0.00000000    
  -9.2693388597817228E-002  0.74209812805265596        0.00000000    
 -0.18469499701358152       0.73173664680507289        0.00000000    
 -0.27550976600103572       0.71387479468499870        0.00000000    
 -0.36420109913364779       0.68905678438874685        0.00000000    
 -0.45041640277743833       0.65636530179885400        0.00000000    
 -0.53292855819578500       0.61620485373272316        0.00000000    
 -0.61146277742669830       0.56763034508359045        0.00000000    
 -0.68445717149837104       0.51094848058642284        0.00000000    
 -0.75163830437840684       0.44529579890845311        0.00000000    
 -0.81107236488114631       0.37097915296061446        0.00000000    
 -0.86240808168982930       0.28738907855377532        0.00000000    
 -0.90332812193506606       0.19501809794834013        0.00000000    
 -0.93335715402362918        9.3763066828025682E-002   0.00000000    
 -0.94984636916845322       -1.5398516743999065E-002   0.00000000    
 -0.95226895894376529      -0.13173685866300056        0.00000000    