 <VTKFile type="UnstructuredGrid" version="0.1" byte_order="BigEndian">
 <UnstructuredGrid>
 <Piece NumberOfPoints="        2601 " NumberOfCells="        2500 ">
 <PointData Scalars="scalars">
 <DataArray type="Float32" NumberOfComponents="3" Name="Velocity" Format="ascii">
   0.0000000000000000        0.0000000000000000        0.00000000    
  -6.6179150540376847E-002   0.0000000000000000        0.00000000    
 -0.13385108267768545        0.0000000000000000        0.00000000    
 -0.20595025648002543        0.0000000000000000        0.00000000    
 -0.28338194248399290        0.0000000000000000        0.00000000    
 -0.37404100473603208        0.0000000000000000        0.00000000    
 -0.47745221903276430        0.0000000000000000        0.00000000    
 -0.64110358594033268        0.0000000000000000        0.00000000    
 -0.86154145471880783        0.0000000000000000        0.00000000    
  -1.7637252530396010        0.0000000000000000        0.00000000    
  -2.2815906660850920        0.0000000000000000        0.00000000    
  -1.6602886821642278        0.0000000000000000        0.00000000    
  -1.8751988350417397        0.0000000000000000        0.00000000    
  -1.4976090844992331        0.0000000000000000        0.00000000    
 -0.86905167576666686        0.0000000000000000        0.00000000    
  -1.0348808279112998        0.0000000000000000        0.00000000    
 -0.80118846521234521        0.0000000000000000        0.00000000    
 -0.83879078576366939        0.0000000000000000        0.00000000    
 -0.79248432205602271        0.0000000000000000        0.00000000    
 -0.65161802269709412        0.0000000000000000        0.00000000    
 -0.65986142406822323        0.0000000000000000        0.00000000    
 -0.53504678089646629        0.0000000000000000        0.00000000    
  -9.7359862185609145E-002   0.0000000000000000        0.00000000    
   9.6064953705556066E-002   0.0000000000000000        0.00000000    
 -0.10245032573765912        0.0000000000000000        0.00000000    
   3.7081741368764104E-002   0.0000000000000000        0.00000000    
  -9.2735239742112785E-002   0.0000000000000000        0.00000000    
  -5.0194923161685445E-002   0.0000000000000000        0.00000000    
  0.23526655968380178        0.0000000000000000        0.00000000    
  0.15127239571028650        0.0000000000000000        0.00000000    
  0.31170928445090967        0.0000000000000000        0.00000000    
  0.63565455064968179        0.0000000000000000        0.00000000    
  0.74613916464064156        0.0000000000000000        0.00000000    
  0.75395528345370666        0.0000000000000000        0.00000000    
  0.79078727696531559        0.0000000000000000        0.00000000    
  0.80441513000998666        0.0000000000000000        0.00000000    
  0.91636243620430613        0.0000000000000000        0.00000000    
   1.2710282404229702        0.0000000000000000        0.00000000    
   1.4669138648499556        0.0000000000000000        0.00000000    
   1.3387275646827406        0.0000000000000000        0.00000000    
   1.9002167989259107        0.0000000000000000        0.00000000    
   1.7051732743511441        0.0000000000000000        0.00000000    
  0.82136206427592540        0.0000000000000000        0.00000000    
  0.63660281510248018        0.0000000000000000        0.00000000    
  0.48083263232025464        0.0000000000000000        0.00000000    
  0.37639482061301127        0.0000000000000000        0.00000000    
  0.28507761348884292        0.0000000000000000        0.00000000    
  0.20722157447851824        0.0000000000000000        0.00000000    
  0.13461374363594542        0.0000000000000000        0.00000000    
   6.6576622899147703E-002   0.0000000000000000        0.00000000    
   0.0000000000000000        0.0000000000000000        0.00000000    
   0.0000000000000000        6.4636437548081585E-002   0.00000000    
  -6.4003060391340683E-002   6.5545773381707709E-002   0.00000000    
 -0.12975075624579255        6.7873854608104675E-002   0.00000000    
 -0.19816376882464090        7.2638331771088693E-002   0.00000000    
 -0.27293270045262319        7.9562285858797183E-002   0.00000000    
 -0.35418856848939601        9.2352644427825550E-002   0.00000000    
 -0.45248356786486754       0.10935356924203229        0.00000000    
 -0.56117174551265958       0.16298597531059048        0.00000000    
 -0.68764307824232929       0.18392322619435364        0.00000000    
 -0.55707953417036449       0.58769702805647128        0.00000000    
 -0.68605053719979281        5.9139388045610849E-002   0.00000000    
  -1.8216513141235695       0.45515940499254515        0.00000000    
  -1.5556246259691431      -0.50627594023653089        0.00000000    
 -0.94524829525659460      -0.48169014098633495        0.00000000    
 -0.93814492255186777      -0.15397064041906353        0.00000000    
 -0.69172327895805863        7.3378149001267975E-002   0.00000000    
  -1.0170106052371068        1.8216814609102284E-002   0.00000000    
 -0.71609458096037293      -0.28153051830469289        0.00000000    
 -0.49174187753443815        1.0871351200160544E-002   0.00000000    
 -0.72443538143720576        8.0955853371844008E-002   0.00000000    
 -0.59040114645683583      -0.20674668695308218        0.00000000    
 -0.33644529320687083      -0.17202380944160978        0.00000000    
 -0.33627904844178452      -0.26582935400717195        0.00000000    
   4.2241106882284357E-002 -0.30611561718205960        0.00000000    
  0.23984913818350143       0.30702286535041495        0.00000000    
 -0.40675821257241562       0.20005241832453188        0.00000000    
  -6.1781408018494896E-002 -0.41521224174144117        0.00000000    
  0.36210672158344254       -5.1216204414615739E-002   0.00000000    
  -2.3710882530512851E-003  0.13023253143247648        0.00000000    
  0.17558823450709904      -0.22419769019125294        0.00000000    
  0.42278049156862418      -0.18343145558261661        0.00000000    
  0.45031828515660194      -0.16805160417461373        0.00000000    
  0.68364309060434825      -0.17575781523416734        0.00000000    
  0.77965879804944671        7.1925989007206939E-002   0.00000000    
  0.60736972548600632        6.3531090076239929E-002   0.00000000    
  0.71803426362692557      -0.18782348122877854        0.00000000    
  0.95779836982443300      -0.16388793112945382        0.00000000    
  0.96135235845624945      -0.19433186168627120        0.00000000    
   1.2116710784109386      -0.25187248265994544        0.00000000    
   1.3983272296935110       0.19340263158006973        0.00000000    
  0.79546148495699043      -0.15202612104826571        0.00000000    
  0.55314644045132377       0.58938469015798445        0.00000000    
  0.68667059372844219       0.16090236663887422        0.00000000    
  0.55836758614790072       0.15215989011235326        0.00000000    
  0.45268566508735614       0.10929221372780674        0.00000000    
  0.35526383361673552        9.2567429447752009E-002   0.00000000    
  0.27409062979130761        7.9922981499679399E-002   0.00000000    
  0.19900034815940354        7.3023339140502574E-002   0.00000000    
  0.13036919027050772        6.8215649588983115E-002   0.00000000    
   6.4288856375089964E-002   6.5901805041294476E-002   0.00000000    
   0.0000000000000000        6.4963674231024268E-002   0.00000000    
   0.0000000000000000       0.12565623543876603        0.00000000    
  -5.8278199258135779E-002  0.12680723513858405        0.00000000    
 -0.11723772837503184       0.13131961782063881        0.00000000    
 -0.17820162387494026       0.13856947663534164        0.00000000    
 -0.24106447449601570       0.15126292324155424        0.00000000    
 -0.30731613058553070       0.16815953116923907        0.00000000    
 -0.37491270430048745       0.19943825558873010        0.00000000    
 -0.42715045949268754       0.23382722180152840        0.00000000    
 -0.46354006190448349       0.27594291484195554        0.00000000    
 -0.43594934423453358       0.33752307766361495        0.00000000    
 -0.31688574906963335       0.31922074635230824        0.00000000    
  0.33880777334328799       0.67498530122748412        0.00000000    
  0.11982957690290574      -0.77315032815384688        0.00000000    
 -0.58279093161395212      -0.12257157523122870        0.00000000    
 -0.74967286814166589      -0.35331064231894527        0.00000000    
 -0.79760250988244907        7.4226149078672102E-002   0.00000000    
 -0.41454652336889486       -4.0399845671714736E-002   0.00000000    
 -0.48493092210241084      -0.45344548353770814        0.00000000    
 -0.54112979979405984        1.4632490727731335E-002   0.00000000    
 -0.20105321192417161       -3.0188370094031056E-002   0.00000000    
 -0.13593930539727206      -0.29475060496768501        0.00000000    
 -0.24566142545134012      -0.22825362459491300        0.00000000    
 -0.25858580604658188      -0.19684140299755576        0.00000000    
 -0.53471245832561709      -0.47749707120906976        0.00000000    
 -0.44640550192504730       0.19248933169995922        0.00000000    
  0.30830673918324897       0.20648106164892158        0.00000000    
  0.21202510563993276      -0.67033605605138580        0.00000000    
  -4.5204266572758937E-002   3.7248852532523719E-002   0.00000000    
  0.36552244206470474       -4.4814242884617375E-003   0.00000000    
  0.42924349278485868      -0.33116410792377360        0.00000000    
  0.30314280417708284      -0.19755660627472918        0.00000000    
  0.30992593351328179      -0.18824737637779257        0.00000000    
  0.21948883173353512      -0.29844974666821983        0.00000000    
  0.31278372995767800        5.3073148021029314E-003   0.00000000    
  0.60359308609469886        1.1629480740261326E-002   0.00000000    
  0.71490115663558540      -0.35789448054247280        0.00000000    
  0.68980472891936795      -0.20848461026255069        0.00000000    
  0.62582831207479295       -8.9312754305991310E-002   0.00000000    
  0.30791362768847552      -0.28929562557311161        0.00000000    
  0.15593111289889000       0.19615213803740858        0.00000000    
  0.34252370732622545       0.26149752283609146        0.00000000    
  0.43278572355779232       0.32791407459967531        0.00000000    
  0.46144919939857509       0.26018535307568980        0.00000000    
  0.42108654014000213       0.22154257051154835        0.00000000    
  0.37051762089510110       0.19616037363169467        0.00000000    
  0.30603067511114751       0.16760804679614971        0.00000000    
  0.24061656011471039       0.15146968297104668        0.00000000    
  0.17823112357789719       0.13895235583581877        0.00000000    
  0.11730706369850082       0.13184185066000029        0.00000000    
   5.8357899991145067E-002  0.12730510157112240        0.00000000    
   0.0000000000000000       0.12620713406552442        0.00000000    
   0.0000000000000000       0.17922906033514338        0.00000000    
  -4.9577065570360221E-002  0.18108967506881471        0.00000000    
  -9.9235008210895578E-002  0.18565464964594103        0.00000000    
 -0.14863767229347852       0.19460100439059208        0.00000000    
 -0.19722669093991299       0.20668326475184517        0.00000000    
 -0.24354643248222496       0.22531058728870773        0.00000000    
 -0.28007795310611661       0.24641529380601951        0.00000000    
 -0.30688470656036787       0.26589469222841505        0.00000000    
 -0.31387680591678224       0.28725714618102260        0.00000000    
 -0.28774801981108178       0.27248934254711454        0.00000000    
 -0.23224656620293804       0.20968943269393847        0.00000000    
 -0.19145369478560803        8.8030221059223576E-002   0.00000000    
 -0.14715225248942138       -1.1518493803713989E-002   0.00000000    
 -0.15785411473279853      -0.17088103878916933        0.00000000    
 -0.17415652466541109      -0.12181683226915133        0.00000000    
 -0.12489191249603514      -0.15860263136633546        0.00000000    
 -0.10500225306030370      -0.21051671115559151        0.00000000    
 -0.10462359603486732      -0.21332287631475458        0.00000000    
  -8.7980274448301601E-002 -0.18593456035980163        0.00000000    
  -6.4382006042981971E-002 -0.19329617526296372        0.00000000    
  -5.3786007817798402E-002 -0.20735270452145865        0.00000000    
  -4.7033169991220009E-002 -0.21268224278727421        0.00000000    
  -3.8025505226275458E-002 -0.20849606894743947        0.00000000    
  -2.5650977333733959E-002 -0.20209028084751032        0.00000000    
  -1.1575436855051564E-002 -0.18529995551121164        0.00000000    
   7.8757392425891774E-004 -0.18280490301836053        0.00000000    
   8.6156435580274637E-003 -0.19259652744540673        0.00000000    
   2.1591120965390957E-002 -0.19623678124065569        0.00000000    
   4.1017068715687312E-002 -0.20114844688724859        0.00000000    
   5.1826464922175172E-002 -0.20902753222231615        0.00000000    
   5.8121246946362518E-002 -0.19988727536480302        0.00000000    
   6.8236037331601163E-002 -0.20281462697935043        0.00000000    
   8.1652189556991370E-002 -0.20686154648278857        0.00000000    
   9.9469301398331614E-002 -0.19739289541623489        0.00000000    
  0.16983890619154637      -0.14684926994954045        0.00000000    
  0.15827825486383454      -0.29916314903149754        0.00000000    
   9.1897333753953328E-002 -0.17573859291432786        0.00000000    
  0.12026064717409422       -8.6445668193915845E-002   0.00000000    
  0.17201557682437613       -2.6002956913629919E-002   0.00000000    
  0.20367571212092508        5.3181848906845582E-002   0.00000000    
  0.23483075407044679       0.18672017561108065        0.00000000    
  0.28675889095310070       0.26050126870892076        0.00000000    
  0.31113440870436926       0.27455916537258374        0.00000000    
  0.30289518791894865       0.25577063825635410        0.00000000    
  0.27523914639002012       0.24015726665839737        0.00000000    
  0.24011537767082461       0.22322186827050758        0.00000000    
  0.19541649330359651       0.20596886085829455        0.00000000    
  0.14759437662550753       0.19466073116151475        0.00000000    
   9.8729705776729293E-002  0.18592220606054791        0.00000000    
   4.9348797859665561E-002  0.18155481779310367        0.00000000    
   0.0000000000000000       0.17966411569247295        0.00000000    
   0.0000000000000000       0.22405383681322255        0.00000000    
  -3.9367789546663104E-002  0.22520975370591706        0.00000000    
  -7.8046226515455952E-002  0.22987095061631024        0.00000000    
 -0.11498947951095299       0.23673062049643628        0.00000000    
 -0.14900228387075790       0.24715547165032706        0.00000000    
 -0.17642848681428017       0.25858432487413990        0.00000000    
 -0.19596205475398917       0.26920664478219630        0.00000000    
 -0.20251361534066675       0.27646165529119993        0.00000000    
 -0.18912919295524305       0.27029786008736251        0.00000000    
 -0.15857425494483474       0.23276490452289755        0.00000000    
 -0.12766323455997733       0.16300139672349756        0.00000000    
 -0.10065782031983804        6.6919971371337886E-002   0.00000000    
  -8.8188239409114522E-002  -4.7179267323693964E-002   0.00000000    
  -8.8622620965244370E-002 -0.12408402147142084        0.00000000    
  -8.5749851865697405E-002 -0.15518420875382075        0.00000000    
  -7.6986572362342839E-002 -0.18326314655443204        0.00000000    
  -7.2077275690499820E-002 -0.21065515207500535        0.00000000    
  -7.0779048870139472E-002 -0.21486131924105320        0.00000000    
  -6.5307621228928719E-002 -0.20651086666127383        0.00000000    
  -5.6116797672928105E-002 -0.20550896092283685        0.00000000    
  -4.8597697173885561E-002 -0.21325501758584584        0.00000000    
  -4.3820382475916859E-002 -0.21831008224749832        0.00000000    
  -3.9127816766597837E-002 -0.21656845996155596        0.00000000    
  -3.1554845572604039E-002 -0.21396538891997993        0.00000000    
  -1.7203771699761988E-002 -0.20185146179035235        0.00000000    
  -1.9608058088558932E-005 -0.19580057116023089        0.00000000    
   1.7301620929301556E-002 -0.20475015792473672        0.00000000    
   3.1221993401309347E-002 -0.21097900064076658        0.00000000    
   3.9034118750418484E-002 -0.21364430058659742        0.00000000    
   4.4823706830739558E-002 -0.21313066280991000        0.00000000    
   5.1535787093123828E-002 -0.20879100706381132        0.00000000    
   5.9251581516974988E-002 -0.21174148008946633        0.00000000    
   6.4458501729605530E-002 -0.21655776581072780        0.00000000    
   7.0523852087874248E-002 -0.21157913828789734        0.00000000    
   7.9909336485950930E-002 -0.21241811626915494        0.00000000    
   7.9403617661406120E-002 -0.22152793255935521        0.00000000    
   7.3439384307571021E-002 -0.18102865492236267        0.00000000    
   8.1370751538375904E-002 -0.11745028683693870        0.00000000    
   9.1342696355455347E-002  -5.6725212738590526E-002   0.00000000    
  0.10121059326843601        4.2376072520689027E-002   0.00000000    
  0.12378084559699067       0.14380065771822387        0.00000000    
  0.15516384911518255       0.22010964619931161        0.00000000    
  0.18635199660039950       0.25938712264398955        0.00000000    
  0.19831808774537132       0.26721581062351002        0.00000000    
  0.19174732055622315       0.26293890300734424        0.00000000    
  0.17256060910224288       0.25475071209273120        0.00000000    
  0.14620422059686033       0.24549528990676497        0.00000000    
  0.11320986340468447       0.23595077598139955        0.00000000    
   7.6981979233331305E-002  0.22972471625893415        0.00000000    
   3.8886078193832815E-002  0.22522911654942823        0.00000000    
   0.0000000000000000       0.22422469298781061        0.00000000    
   0.0000000000000000       0.25807741035624682        0.00000000    
  -2.8802145370614561E-002  0.25935611507838036        0.00000000    
  -5.6388709709890600E-002  0.26198959055012466        0.00000000    
  -8.1614918645001505E-002  0.26678144249141983        0.00000000    
 -0.10224879574072553       0.27175133110906452        0.00000000    
 -0.11699210162637483       0.27615797424273730        0.00000000    
 -0.12270297677499092       0.27687743850011048        0.00000000    
 -0.11702680883079407       0.26966625421397783        0.00000000    
  -9.9431003946600149E-002  0.24611303389325873        0.00000000    
  -7.5178792086489907E-002  0.20214258084486705        0.00000000    
  -4.7780994893139889E-002  0.13531490282199857        0.00000000    
  -2.7769333577768646E-002   4.7589389716106933E-002   0.00000000    
  -2.3867058189491600E-002  -4.4220541968661417E-002   0.00000000    
  -3.5179957108648525E-002 -0.11529546635200817        0.00000000    
  -4.4709725750112020E-002 -0.15731576433186936        0.00000000    
  -4.7820443517574945E-002 -0.18678415271268459        0.00000000    
  -5.2272852176062229E-002 -0.20759103393046802        0.00000000    
  -5.6509958172637535E-002 -0.21498655820968435        0.00000000    
  -5.4773899520881658E-002 -0.21359311398587336        0.00000000    
  -4.8387724123673835E-002 -0.21400371255166220        0.00000000    
  -4.2593226638684416E-002 -0.21807386394125772        0.00000000    
  -3.9269609437317061E-002 -0.22159216779161969        0.00000000    
  -3.5742905053060270E-002 -0.22150564451120386        0.00000000    
  -3.0917504416464466E-002 -0.22142657620106715        0.00000000    
  -2.0631285114437684E-002 -0.21902756768433115        0.00000000    
   7.3522436245843266E-004 -0.21717513838499611        0.00000000    
   2.0577395157739552E-002 -0.22053899048291756        0.00000000    
   3.0465464579452102E-002 -0.21899860997645937        0.00000000    
   3.5889925272346287E-002 -0.21886127729306812        0.00000000    
   4.0216112517256722E-002 -0.21802946142885979        0.00000000    
   4.6117888547816441E-002 -0.21650606473799391        0.00000000    
   5.2159856619001979E-002 -0.21778418491051793        0.00000000    
   5.5546650719579961E-002 -0.21910877530311970        0.00000000    
   5.8212677460867543E-002 -0.21775950589531862        0.00000000    
   5.9340688992764803E-002 -0.21675124459199890        0.00000000    
   5.0804164137487902E-002 -0.20815256055705306        0.00000000    
   3.8060901397997268E-002 -0.17569653083180894        0.00000000    
   3.0931538879015712E-002 -0.12358441563987324        0.00000000    
   2.5875963424675567E-002  -5.5507453299117382E-002   0.00000000    
   2.7812377037700186E-002   2.9354002553943263E-002   0.00000000    
   4.4241898483410029E-002  0.11782295390943134        0.00000000    
   7.0586834926058759E-002  0.18835941004592438        0.00000000    
   9.4963759049626048E-002  0.23557228718697557        0.00000000    
  0.11296838942191777       0.26105992456156185        0.00000000    
  0.11837560954386506       0.27025833613469286        0.00000000    
  0.11321604900721272       0.27177755095420159        0.00000000    
   9.9124743980489677E-002  0.26891614457555857        0.00000000    
   7.9390098387101191E-002  0.26525892409636592        0.00000000    
   5.4986411796053340E-002  0.26104813890456080        0.00000000    
   2.8127949796436964E-002  0.25886005694112957        0.00000000    
   0.0000000000000000       0.25760778058459299        0.00000000    
   0.0000000000000000       0.28244286871181673        0.00000000    
  -1.8811974171807300E-002  0.28260477626350405        0.00000000    
  -3.6380054843979388E-002  0.28389557437471613        0.00000000    
  -5.1060532436668575E-002  0.28478214519290074        0.00000000    
  -6.1725674616172156E-002  0.28504964768107377        0.00000000    
  -6.6279368312731790E-002  0.28215665725121974        0.00000000    
  -6.3713778764522805E-002  0.27402404109032930        0.00000000    
  -5.2901643345133732E-002  0.25603134825852414        0.00000000    
  -3.5778154523063058E-002  0.22502864614085707        0.00000000    
  -1.4260926611538226E-002  0.17745752882418539        0.00000000    
   5.0382207692337908E-003  0.11330301026720878        0.00000000    
   1.6773052313041801E-002   3.7854789410503714E-002   0.00000000    
   1.6070021055596344E-002  -3.7685185794919460E-002   0.00000000    
   6.7362828876659717E-003 -0.10118418543955925        0.00000000    
  -6.5130904414591375E-003 -0.14864790327443017        0.00000000    
  -1.8685871271437806E-002 -0.18016851517325105        0.00000000    
  -2.8017564624968346E-002 -0.20042256945835171        0.00000000    
  -3.4541970767498355E-002 -0.21139351054311034        0.00000000    
  -3.7229122388317173E-002 -0.21623506868374057        0.00000000    
  -3.6211216468120332E-002 -0.21876583917152817        0.00000000    
  -3.3594931062776882E-002 -0.22172252021201355        0.00000000    
  -3.0750030520368177E-002 -0.22411202926492127        0.00000000    
  -2.7403441608585918E-002 -0.22585907633418123        0.00000000    
  -2.2500111847441731E-002 -0.22680187477607067        0.00000000    
  -1.3192885959673859E-002 -0.23324571429930263        0.00000000    
   1.2122974916076218E-003 -0.23872868469874395        0.00000000    
   1.4217667043920865E-002 -0.23183298451715864        0.00000000    
   2.2237848191705115E-002 -0.22561286651193435        0.00000000    
   2.8074528512808877E-002 -0.22350816177180785        0.00000000    
   3.2786416983391325E-002 -0.22242065266586697        0.00000000    
   3.6604889744214587E-002 -0.22183512229264005        0.00000000    
   3.9310998648409527E-002 -0.22120320433154994        0.00000000    
   4.0389933367972662E-002 -0.22015548470254939        0.00000000    
   3.8753286322192625E-002 -0.21774217619175754        0.00000000    
   3.1922262389103465E-002 -0.21106556189478132        0.00000000    
   2.0486554098866110E-002 -0.19386601010923682        0.00000000    
   6.3115034874903905E-003 -0.16306476792933369        0.00000000    
  -8.1311746462892180E-003 -0.11464413789027049        0.00000000    
  -1.6831713731706173E-002  -5.0691616509886281E-002   0.00000000    
  -1.7327141602814372E-002   2.3097180021784913E-002   0.00000000    
  -7.5955701869900244E-003   9.7918683578811574E-002   0.00000000    
   1.0139398577036315E-002  0.16418377516850319        0.00000000    
   3.1357563806921569E-002  0.21415283270948995        0.00000000    
   4.8433080824949563E-002  0.24739923164713007        0.00000000    
   5.9654929901836108E-002  0.26728995984864318        0.00000000    
   6.2483368211091683E-002  0.27707704946593575        0.00000000    
   5.8634045172891960E-002  0.28155727412703091        0.00000000    
   4.8681514162775739E-002  0.28230497114665914        0.00000000    
   3.4827665449682521E-002  0.28225962715668329        0.00000000    
   1.8041181178057340E-002  0.28129351495851712        0.00000000    
   0.0000000000000000       0.28134345353997420        0.00000000    
   0.0000000000000000       0.29699714038418490        0.00000000    
  -1.0119274922258292E-002  0.29698175368353369        0.00000000    
  -1.8927196620229590E-002  0.29589459932316603        0.00000000    
  -2.5376335228368498E-002  0.29391273644361426        0.00000000    
  -2.7949303526078290E-002  0.28915716690592502        0.00000000    
  -2.5983964906912460E-002  0.28063749310212394        0.00000000    
  -1.8405908074245598E-002  0.26539955885695077        0.00000000    
  -6.0634678378143183E-003  0.24150125483452239        0.00000000    
   1.0337825172367657E-002  0.20603395773113017        0.00000000    
   2.7013701034403762E-002  0.15825911345895116        0.00000000    
   4.0949655868681836E-002   9.9266323416106486E-002   0.00000000    
   4.7399651439723918E-002   3.3706649145592620E-002   0.00000000    
   4.5726220217729319E-002  -3.1160583051617879E-002   0.00000000    
   3.6210008751944620E-002  -8.8858838550040023E-002   0.00000000    
   2.2957830516534473E-002 -0.13447169860019959        0.00000000    
   8.9907602307767367E-003 -0.16820486873240167        0.00000000    
  -3.2467077288217414E-003 -0.19081705458665058        0.00000000    
  -1.2437449187589751E-002 -0.20528387781401067        0.00000000    
  -1.8201760576847921E-002 -0.21389323840322139        0.00000000    
  -2.0860265805619938E-002 -0.21946707014387476        0.00000000    
  -2.1161102427081510E-002 -0.22333673802393544        0.00000000    
  -1.9799254974948749E-002 -0.22670455944788021        0.00000000    
  -1.7007655014188116E-002 -0.22940473502410536        0.00000000    
  -1.1847263756283141E-002 -0.23331993710547333        0.00000000    
  -5.1564364297615401E-003 -0.24272570518446729        0.00000000    
   6.8460089543054780E-004 -0.24949491459061982        0.00000000    
   6.7160395552731756E-003 -0.24010356283799128        0.00000000    
   1.3299614037350485E-002 -0.23194604382120323        0.00000000    
   1.8532794019331892E-002 -0.22824484476593582        0.00000000    
   2.2172234060258561E-002 -0.22603529818356741        0.00000000    
   2.4213574863395013E-002 -0.22408029033925431        0.00000000    
   2.4408643896904187E-002 -0.22185921422301455        0.00000000    
   2.2179134502040006E-002 -0.21834890013619573        0.00000000    
   1.6437089759121830E-002 -0.21217006896986534        0.00000000    
   6.8580035176645125E-003 -0.20022755894263217        0.00000000    
  -6.4529624869921814E-003 -0.17995733876707154        0.00000000    
  -2.1956382582733251E-002 -0.14729496856503857        0.00000000    
  -3.6021071996224077E-002 -0.10190656970809284        0.00000000    
  -4.6128174574572293E-002  -4.4621543029183204E-002   0.00000000    
  -4.8613865569478762E-002   2.0008225406026842E-002   0.00000000    
  -4.3125853628437051E-002   8.5788054836540589E-002   0.00000000    
  -3.0308201290413929E-002  0.14576178280742391        0.00000000    
  -1.4349484867672378E-002  0.19539794341653452        0.00000000    
   2.0172129842669462E-003  0.23271190606863876        0.00000000    
   1.4435838010289557E-002  0.25833681132265973        0.00000000    
   2.2491638036924042E-002  0.27514595965443062        0.00000000    
   2.4927632991978393E-002  0.28490169202003957        0.00000000    
   2.3079183535115639E-002  0.29076153371898211        0.00000000    
   1.7351537392420392E-002  0.29338455943848368        0.00000000    
   9.3376028721431151E-003  0.29496900146695693        0.00000000    
   0.0000000000000000       0.29504675108006817        0.00000000    
   0.0000000000000000       0.30397783057928851        0.00000000    
  -2.8780705525356860E-003  0.30299840896161767        0.00000000    
  -4.7730499492763170E-003  0.30058084513818950        0.00000000    
  -4.5373410157344973E-003  0.29543992030159472        0.00000000    
  -1.5773947369513131E-003  0.28724300506528788        0.00000000    
   5.0283329047810608E-003  0.27398058868030772        0.00000000    
   1.4925276877726964E-002  0.25458146247162722        0.00000000    
   2.8035195364900581E-002  0.22686699249476874        0.00000000    
   4.2210558464603226E-002  0.19009156395958324        0.00000000    
   5.5855711837472080E-002  0.14388047799425938        0.00000000    
   6.5478154884087689E-002   9.0086560998660581E-002   0.00000000    
   6.9673380499028797E-002   3.2241190375906198E-002   0.00000000    
   6.6729905823163196E-002  -2.5078218385101936E-002   0.00000000    
   5.8209267546024047E-002  -7.6904353474569975E-002   0.00000000    
   4.5624626288029213E-002 -0.12058936418308125        0.00000000    
   3.1890016416869442E-002 -0.15438552299334105        0.00000000    