 <VTKFile type="UnstructuredGrid" version="0.1" byte_order="BigEndian">
 <UnstructuredGrid>
 <Piece NumberOfPoints="        2601 " NumberOfCells="        2500 ">
 <PointData Scalars="scalars">
 <DataArray type="Float32" NumberOfComponents="3" Name="Velocity" Format="ascii">
   0.0000000000000000        0.0000000000000000        0.00000000    
  -8.0410901749027971E-002   0.0000000000000000        0.00000000    
 -0.16183038082703960        0.0000000000000000        0.00000000    
 -0.24526868936502411        0.0000000000000000        0.00000000    
 -0.33195521766723629        0.0000000000000000        0.00000000    
 -0.42314571157997710        0.0000000000000000        0.00000000    
 -0.52058369690229012        0.0000000000000000        0.00000000    
 -0.62616096263854926        0.0000000000000000        0.00000000    
 -0.74255080702832710        0.0000000000000000        0.00000000    
 -0.87304607971933323        0.0000000000000000        0.00000000    
  -1.0210589072346454        0.0000000000000000        0.00000000    
  -1.1927380138195318        0.0000000000000000        0.00000000    
  -1.3796301821669290        0.0000000000000000        0.00000000    
  -1.5655483251299547        0.0000000000000000        0.00000000    
  -2.7365261418599562        0.0000000000000000        0.00000000    
  -3.2639986080488037        0.0000000000000000        0.00000000    
  -2.0169517880207417        0.0000000000000000        0.00000000    
  -1.4267883042211451        0.0000000000000000        0.00000000    
  -1.1016242071692985        0.0000000000000000        0.00000000    
 -0.79931132101988711        0.0000000000000000        0.00000000    
 -0.79575808206015275        0.0000000000000000        0.00000000    
 -0.45634611152746996        0.0000000000000000        0.00000000    
 -0.28047167844788351        0.0000000000000000        0.00000000    
   4.4500264068032064E-002   0.0000000000000000        0.00000000    
  0.26798657702398282        0.0000000000000000        0.00000000    
  0.11656259841352574        0.0000000000000000        0.00000000    
  0.12001654739949118        0.0000000000000000        0.00000000    
 -0.11642683795369345        0.0000000000000000        0.00000000    
  -8.6960079022431643E-003   0.0000000000000000        0.00000000    
  0.15685118226776984        0.0000000000000000        0.00000000    
  0.43187631128748449        0.0000000000000000        0.00000000    
  0.65790751176660167        0.0000000000000000        0.00000000    
   1.0285605564075051        0.0000000000000000        0.00000000    
   1.3676333444081465        0.0000000000000000        0.00000000    
   1.7205900608928824        0.0000000000000000        0.00000000    
   2.1452729675419944        0.0000000000000000        0.00000000    
   1.7270636354920796        0.0000000000000000        0.00000000    
   1.4924315742131222        0.0000000000000000        0.00000000    
   1.3831536509556706        0.0000000000000000        0.00000000    
   1.2094663966580534        0.0000000000000000        0.00000000    
   1.0393104290451820        0.0000000000000000        0.00000000    
  0.88840783675723323        0.0000000000000000        0.00000000    
  0.75534234414047197        0.0000000000000000        0.00000000    
  0.63645969753703557        0.0000000000000000        0.00000000    
  0.52882057141548822        0.0000000000000000        0.00000000    
  0.42959857597714801        0.0000000000000000        0.00000000    
  0.33686603305901358        0.0000000000000000        0.00000000    
  0.24881484368624632        0.0000000000000000        0.00000000    
  0.16412905946279480        0.0000000000000000        0.00000000    
   8.1542818586950824E-002   0.0000000000000000        0.00000000    
   0.0000000000000000        0.0000000000000000        0.00000000    
   0.0000000000000000        7.9416328432132935E-002   0.00000000    
  -7.8884875245609873E-002   7.9879448560301200E-002   0.00000000    
 -0.15866298821770675        8.1318143487598513E-002   0.00000000    
 -0.24032138152076563        8.3778558351224081E-002   0.00000000    
 -0.32482966808921931        8.7416256517204804E-002   0.00000000    
 -0.41345450335490069        9.2399072658954307E-002   0.00000000    
 -0.50744416540241466        9.9028574708580536E-002   0.00000000    
 -0.60856556993506350       0.10767009555799138        0.00000000    
 -0.71860582488993885       0.11876000378427892        0.00000000    
 -0.83982719434932551       0.13295663836366178        0.00000000    
 -0.97454052057558704       0.14976951537539415        0.00000000    
  -1.1221357664817453       0.16950483711301595        0.00000000    
  -1.2802452921905350       0.17549685694045924        0.00000000    
  -1.3748872434738124       0.10506323730278079        0.00000000    
  -1.8817590166727791        1.5727863526785932        0.00000000    
  -1.9616455035209237      -0.96542739959224910        0.00000000    
  -1.6770619317279747      -0.56620299217804249        0.00000000    
  -1.2500475441967369      -0.45097487910344775        0.00000000    
 -0.91218294391690624      -0.21205381817825988        0.00000000    
 -0.86644210610203998      -0.13599990573690393        0.00000000    
 -0.63098230260380783      -0.10301313667180825        0.00000000    
 -0.65084638787812088      -0.21653474853782731        0.00000000    
 -0.23442890388577914      -0.37575716848551849        0.00000000    
   3.0594803429780826E-002 -0.21423848129749173        0.00000000    
  0.14167630157103445      -0.12032932975203223        0.00000000    
  0.28484154990054217       0.12858806008107554        0.00000000    
  -4.3589910455199776E-002  0.19638945133583866        0.00000000    
  -1.8104273760167947E-002   1.4568297370251304E-002   0.00000000    
  -1.8834676823351753E-002 -0.12156872431103882        0.00000000    
  0.21009595255026051      -0.27290909518441808        0.00000000    
  0.47211457708025467      -0.26413465831708016        0.00000000    
  0.69585102355382245      -0.18563298858711730        0.00000000    
  0.82473772338025708      -0.31390675583138294        0.00000000    
   1.2702011142588068      -0.47062942299896032        0.00000000    
   1.6615163219307458      -0.27364250110820237        0.00000000    
   1.6988932654724536      -0.18841734903296115        0.00000000    
   1.7369515697968818       0.56856837680908523        0.00000000    
   1.3670349893456959        3.5980264960203207E-002   0.00000000    
   1.2850023360083471       0.15533031163264868        0.00000000    
   1.1371252389735973       0.16623403969751932        0.00000000    
  0.98939281367274456       0.15165435321387455        0.00000000    
  0.85332487745012042       0.13531617529433901        0.00000000    
  0.72992830948967713       0.12114588528053499        0.00000000    
  0.61793273005129712       0.10973234075897199        0.00000000    
  0.51501074585038509       0.10082876956121474        0.00000000    
  0.41944610482908151        9.3957866896178854E-002   0.00000000    
  0.32942382857212243        8.8796952276691821E-002   0.00000000    
  0.24365087131425239        8.5027194351739124E-002   0.00000000    
  0.16083219087495568        8.2477270308817296E-002   0.00000000    
   7.9952822310380534E-002   8.0988339129417636E-002   0.00000000    
   0.0000000000000000        8.0507301765734604E-002   0.00000000    
   0.0000000000000000       0.15586885386309685        0.00000000    
  -7.4426671392079674E-002  0.15673846976482070        0.00000000    
 -0.14952249808843726       0.15933306194932073        0.00000000    
 -0.22591789459990771       0.16381742970181026        0.00000000    
 -0.30436297813973451       0.17033075527265740        0.00000000    
 -0.38546661573448121       0.17921304676167016        0.00000000    
 -0.47004820761683253       0.19078585453343250        0.00000000    
 -0.55855386185504718       0.20553987450167638        0.00000000    
 -0.65154879165262058       0.22392540959065349        0.00000000    
 -0.74840497213319968       0.24586878249482244        0.00000000    
 -0.84765990458324081       0.27082562991799847        0.00000000    
 -0.94244639676971520       0.29083046066047707        0.00000000    
  -1.0218473197460631       0.29168168207534517        0.00000000    
  -1.0771354492320344       0.13880849293479927        0.00000000    
 -0.23164950507785950        1.2004269261064118        0.00000000    
 -0.29426347599395070      -0.45056751520312233        0.00000000    
 -0.86895783224700995      -0.79095209205917283        0.00000000    
 -0.88221378702719255      -0.63998421192185651        0.00000000    
 -0.71622844104264571      -0.52689443157543125        0.00000000    
 -0.51252805008802671       -7.0600521059312416E-002   0.00000000    
 -0.80237067439726217      -0.11402970048995231        0.00000000    
 -0.54773302440898330      -0.44029174938439924        0.00000000    
 -0.49527400781154579      -0.62087666818005083        0.00000000    
  -6.7413450069186642E-002 -0.66200324661301180        0.00000000    
  0.14623273549812654        2.7077519038464439E-003   0.00000000    
 -0.11792244870794721       0.12654091434806672        0.00000000    
  0.23949977917471993       0.16944582959054030        0.00000000    
   1.8823826062332651E-002  0.23670223557913966        0.00000000    
   4.4156717609993276E-002 -0.36830515095590155        0.00000000    
  0.44403096255788249      -0.65497754281347964        0.00000000    
  0.67816420408609235      -0.37821807669773733        0.00000000    
  0.61141600769873072      -0.22853782024406102        0.00000000    
  0.59299152158570700      -0.38146413783943767        0.00000000    
  0.63600425798832094      -0.89154816822265193        0.00000000    
   1.3367114946901129      -0.94474620020961597        0.00000000    
   1.4877093217194242       0.29431157954755538        0.00000000    
  0.85851604246270763       0.67697442321073287        0.00000000    
   1.0859777229188896        7.0029118605578006E-002   0.00000000    
   1.0273947824144074       0.26189705182701006        0.00000000    
  0.94844594827847872       0.28649323067142363        0.00000000    
  0.85529951939604065       0.27227401642082733        0.00000000    
  0.75652796479869266       0.24953600290499223        0.00000000    
  0.65918980313664888       0.22766078729000494        0.00000000    
  0.56532432793630594       0.20907849338592291        0.00000000    
  0.47579453733843624       0.19393439173075766        0.00000000    
  0.39018004838242853       0.18203137470170205        0.00000000    
  0.30805918969337848       0.17286657941494543        0.00000000    
  0.22864791195766887       0.16614180220486005        0.00000000    
  0.15131633904133632       0.16151291580912702        0.00000000    
   7.5317716712518426E-002  0.15883068452031471        0.00000000    
   0.0000000000000000       0.15793549539555293        0.00000000    
   0.0000000000000000       0.22671376160580137        0.00000000    
  -6.7471967758737761E-002  0.22779220117072896        0.00000000    
 -0.13523230937996286       0.23113549885878784        0.00000000    
 -0.20358743095022450       0.23676551087185360        0.00000000    
 -0.27268346614111955       0.24492379283110491        0.00000000    
 -0.34268712632497694       0.25572730697956553        0.00000000    
 -0.41331192800200806       0.26947798787264177        0.00000000    
 -0.48414468336375210       0.28618615076009674        0.00000000    
 -0.55353244048984196       0.30566182025354127        0.00000000    
 -0.61915908134738673       0.32661519316761983        0.00000000    
 -0.67482336439003421       0.34499843473541975        0.00000000    
 -0.71411371953327185       0.35073450317014343        0.00000000    
 -0.71911599297773221       0.31618083598391816        0.00000000    
 -0.71989518512289608       0.17037666065440035        0.00000000    
 -0.58928576628065255       0.19276339542354567        0.00000000    
 -0.14660246044093012       0.17702668060029492        0.00000000    
 -0.35993408104132335      -0.63052031095397987        0.00000000    
 -0.46573343397432243      -0.68136068526524229        0.00000000    
 -0.63331604536628183      -0.48392069277440480        0.00000000    
 -0.76804745370785910      -0.18254324242526790        0.00000000    
 -0.24977187729027289      -0.23051993118221181        0.00000000    
 -0.27083064024917369      -0.55738040567365066        0.00000000    
 -0.38998521419695759      -0.43709245449147383        0.00000000    
 -0.83096214745718566      -0.83267108473405138        0.00000000    
 -0.87030290314064052       -9.2983981276920482E-004   0.00000000    
 -0.29076713273945770      -0.18520208008097100        0.00000000    
   5.8210819491477384E-002 -0.22521135604977410        0.00000000    
  0.74533567872216222       0.16491051515008132        0.00000000    
   1.0402241315444660      -0.61673477485068984        0.00000000    
  0.76392461136570733      -0.53012264363885198        0.00000000    
  0.50544856125051763      -0.47873016723688183        0.00000000    
  0.43671815428425603        7.4528736970142515E-003   0.00000000    
  0.35493660640586250      -0.51724879774021204        0.00000000    
  0.67366409248668335       -1.1175037307573186        0.00000000    
  0.20366462459393472      -0.94949840643352756        0.00000000    
 -0.21392330175208218       0.56565388513615977        0.00000000    
  0.57468514117414948       0.24621695400243093        0.00000000    
  0.73114321005136940       0.11686683853256322        0.00000000    
  0.71427067623666174       0.29051480621631348        0.00000000    
  0.70905006265931680       0.34204492399266689        0.00000000    
  0.67415128932129487       0.34476752531757476        0.00000000    
  0.62065746678337663       0.32930787114105992        0.00000000    
  0.55640104559380865       0.30948350190321017        0.00000000    
  0.48739611497049640       0.29012618459404055        0.00000000    
  0.41653307848689836       0.27327952760184160        0.00000000    
  0.34556212272714754       0.25927168354411739        0.00000000    
  0.27508749385842607       0.24822175812808289        0.00000000    
  0.20542569601354016       0.23985969907010515        0.00000000    
  0.13647602809077550       0.23407625978078742        0.00000000    
   6.8095823431198771E-002  0.23064616753485986        0.00000000    
   0.0000000000000000       0.22953355252254301        0.00000000    
   0.0000000000000000       0.28970317562351905        0.00000000    
  -5.8605194708297316E-002  0.29087994961785030        0.00000000    
 -0.11712417731075583       0.29432707463314667        0.00000000    
 -0.17537012628975163       0.30017500564454580        0.00000000    
 -0.23310323611185710       0.30834344306918426        0.00000000    
 -0.28971474136057535       0.31892282217182577        0.00000000    
 -0.34439672114547137       0.33158925414003210        0.00000000    
 -0.39543209368779408       0.34594301239448461        0.00000000    
 -0.44056475878016021       0.36042538083525644        0.00000000    
 -0.47537706065593582       0.37229057531685283        0.00000000    
 -0.49499050448471493       0.37460077945513803        0.00000000    
 -0.49047806410244255       0.35591007320888013        0.00000000    
 -0.46154833296277059       0.28707780824727686        0.00000000    
 -0.42886080043056879       0.16757134800067594        0.00000000    
 -0.38971118898243506        2.5809677782952949E-002   0.00000000    
 -0.34354814137829187      -0.14486595513440656        0.00000000    
 -0.21457515785921888      -0.22426903808948837        0.00000000    
 -0.43869242518307394      -0.75769533782504417        0.00000000    
 -0.50115999129162148      -0.17753586266476240        0.00000000    
 -0.29630292835559885      -0.55905372707769785        0.00000000    
 -0.26461228317839292      -0.40397566809106561        0.00000000    
 -0.14880656768511560      -0.47867162124846663        0.00000000    
  -9.7164762195235482E-002 -0.44828847041028924        0.00000000    
  -5.0034825246132793E-002 -0.42762807245605849        0.00000000    
  -2.1837849371845856E-002 -0.39482907222890840        0.00000000    
  -6.3066446120035643E-003 -0.38636982280941462        0.00000000    
   9.3264289495767344E-003 -0.38865463907423492        0.00000000    
   5.5882934420244758E-002 -0.40532756651150931        0.00000000    
  0.14113654782077278      -0.42663875937609269        0.00000000    
  0.19848736612839549      -0.50126995719405665        0.00000000    
  0.32835921380240607      -0.37897865119161261        0.00000000    
  0.63907512740323902      -0.33428414893322228        0.00000000    
  0.93315945972223469      -0.38781455951407839        0.00000000    
  0.43035941789982091       -1.0628654131934681        0.00000000    
   1.8026629398893056E-002 -0.12180446755590760        0.00000000    
  0.27285138393552538       -9.9276881878047507E-002   0.00000000    
  0.37127496527456688        2.4115696762154540E-002   0.00000000    
  0.42118777982586714       0.13259721233944080        0.00000000    
  0.44920590221986273       0.26363884382639036        0.00000000    
  0.47986012738559042       0.34348727479150631        0.00000000    
  0.48732071335105487       0.37076336188867309        0.00000000    
  0.47138976163179225       0.37273680882474436        0.00000000    
  0.43878008768912558       0.36292065934937062        0.00000000    
  0.39516531375782032       0.34930873170021015        0.00000000    
  0.34488597588821607       0.33523935484658646        0.00000000    
  0.29057702360590970       0.32259176433920062        0.00000000    
  0.23402185875124770       0.31193147105415409        0.00000000    
  0.17618596027405065       0.30364768246392237        0.00000000    
  0.11771520809731754       0.29770869648427317        0.00000000    
   5.8916557704227233E-002  0.29419258588186209        0.00000000    
   0.0000000000000000       0.29299951530878798        0.00000000    
   0.0000000000000000       0.34337516272483420        0.00000000    
  -4.8556005796599001E-002  0.34436916301924547        0.00000000    
  -9.6642608580807712E-002  0.34744344661623250        0.00000000    
 -0.14374316755104552       0.35240514160849262        0.00000000    
 -0.18910905970765313       0.35921230908174878        0.00000000    
 -0.23181527542592539       0.36737167712401925        0.00000000    
 -0.27036703696721603       0.37637414051179108        0.00000000    
 -0.30288743640715726       0.38471389800270617        0.00000000    
 -0.32641121364030018       0.39031093755025631        0.00000000    
 -0.33760893982814399       0.38841504666311161        0.00000000    
 -0.33207896021488748       0.37255977232202514        0.00000000    
 -0.30771127352447342       0.32907095326682811        0.00000000    
 -0.27173982193891172       0.24901574546147062        0.00000000    
 -0.23091421181110991       0.13212026812377059        0.00000000    
 -0.19653082771350605       -1.2272237888225778E-002   0.00000000    
 -0.17133065660806290      -0.17814725817437554        0.00000000    
 -0.15251861120753632      -0.33877276397134076        0.00000000    
 -0.14451438451448975      -0.42707857128070625        0.00000000    
 -0.13033814137212582      -0.45986130624033944        0.00000000    
 -0.11382100650997322      -0.49810248129909612        0.00000000    
 -0.10387758063374519      -0.50656098491737089        0.00000000    
  -9.1599817120052413E-002 -0.50416978342863550        0.00000000    
  -8.2473523761001644E-002 -0.48355840707845293        0.00000000    
  -6.6648657751599560E-002 -0.45531293874645518        0.00000000    
  -3.7998416341778030E-002 -0.42399142322274036        0.00000000    
  -6.8970367024032229E-003 -0.40384005621486135        0.00000000    
   2.8777216685149824E-002 -0.42249173261800105        0.00000000    
   6.3588301304572853E-002 -0.45285806305794257        0.00000000    
   8.2217864178981359E-002 -0.48299143910465020        0.00000000    
   9.0252824078684499E-002 -0.51030305567234246        0.00000000    
  0.10285713110927912      -0.51242170741744053        0.00000000    
  0.11367442974829897      -0.52237430494468273        0.00000000    
  0.12207939150184720      -0.50221369756959999        0.00000000    
  0.12777474554348528      -0.45136158733937354        0.00000000    
  0.13447331491409650      -0.32767407427104583        0.00000000    
  0.16067787837917169      -0.17443659316639434        0.00000000    
  0.19323466736495587       -3.1704962276511713E-002   0.00000000    
  0.22395304274486835       0.10778668144431150        0.00000000    
  0.25887201156599138       0.22551228350344463        0.00000000    
  0.29486375794690262       0.31496786356497203        0.00000000    
  0.32157584583775484       0.36511009925641585        0.00000000    
  0.32983521019599443       0.38606165881556570        0.00000000    
  0.32129449801388066       0.39074619548101958        0.00000000    
  0.29962971055785342       0.38676275695357704        0.00000000    
  0.26847243908059393       0.37922193893784778        0.00000000    
  0.23076770138023187       0.37062287022836454        0.00000000    
  0.18860485878483826       0.36261837261285029        0.00000000    
  0.14353009152189303       0.35587144664316883        0.00000000    
   9.6580073217400170E-002  0.35090570278407834        0.00000000    
   4.8544613696068634E-002  0.34782968949430215        0.00000000    
   0.0000000000000000       0.34682358309447553        0.00000000    
   0.0000000000000000       0.38677939620495294        0.00000000    
  -3.8019331856312642E-002  0.38754026718986950        0.00000000    
  -7.5298326196283030E-002  0.38963793956761128        0.00000000    
 -0.11099839133177898       0.39301127276067405        0.00000000    
 -0.14416516833954010       0.39713884709174013        0.00000000    
 -0.17353214818858798       0.40151833467915732        0.00000000    
 -0.19758898336393813       0.40483607967106522        0.00000000    
 -0.21431177547500413       0.40549515039221790        0.00000000    
 -0.22145280472352735       0.40019449164013488        0.00000000    
 -0.21658134059635117       0.38485775463163130        0.00000000    
 -0.19805987172339876       0.35206561586495821        0.00000000    
 -0.16810949554689300       0.29524704685462039        0.00000000    
 -0.13039763909907087       0.20915634383788764        0.00000000    
  -9.3882430851310025E-002   9.4638851369485633E-002   0.00000000    
  -6.1891756238104799E-002  -4.1164879846876126E-002   0.00000000    
  -4.2217876296453405E-002 -0.19412866726496711        0.00000000    
  -5.0738690774797639E-002 -0.33308258580526806        0.00000000    
  -7.0099476300142377E-002 -0.42141219061557850        0.00000000    
  -7.8913156003830198E-002 -0.47089025034503862        0.00000000    
  -8.2585314010044916E-002 -0.49991851405097032        0.00000000    
  -8.4460543842826349E-002 -0.51281314820954216        0.00000000    
  -8.5353233901469427E-002 -0.50930269359199698        0.00000000    
  -8.0594767342820478E-002 -0.49231025683329782        0.00000000    
  -6.9045176589523652E-002 -0.47393554575467284        0.00000000    
  -4.6188670713040045E-002 -0.45687556350120162        0.00000000    
  -2.7874634544431103E-003 -0.44545850283479543        0.00000000    
   4.1350425390324165E-002 -0.46068542823105996        0.00000000    
   6.5856076763266089E-002 -0.47398110343757954        0.00000000    
   7.9142635518658799E-002 -0.49378452035519727        0.00000000    
   8.5081563368323329E-002 -0.51348386217163844        0.00000000    
   8.6051866274457184E-002 -0.52281551085536182        0.00000000    
   8.4025718198585744E-002 -0.52077165207046683        0.00000000    
   7.1641763999911415E-002 -0.49983735799935097        0.00000000    
   5.1166248622287629E-002 -0.43895776557444799        0.00000000    
   3.7234018490387787E-002 -0.33284423527586493        0.00000000    
   4.0353791993769338E-002 -0.19859076913183868        0.00000000    
   5.8198788213899490E-002  -5.7952571519325438E-002   0.00000000    
   8.6805713472587462E-002   7.4708990046218157E-002   0.00000000    
  0.12104182822889800       0.18943489132160732        0.00000000    
  0.15622526120063676       0.27987007639167821        0.00000000    
  0.18701945582553842       0.34270160391146437        0.00000000    
  0.20736081908537665       0.37986942654011957        0.00000000    
  0.21430188614986412       0.39853807287175530        0.00000000    
  0.20907825259180443       0.40585930057469310        0.00000000    
  0.19385213909786761       0.40650878028567583        0.00000000    
  0.17096282485671055       0.40393008081986487        0.00000000    
  0.14243490268024350       0.40000192679100766        0.00000000    
  0.10989175137395084       0.39610581103208337        0.00000000    
   7.4642250942605695E-002  0.39287085712882808        0.00000000    
   3.7717437322237604E-002  0.39082480828909527        0.00000000    
   0.0000000000000000       0.39009051531582961        0.00000000    
   0.0000000000000000       0.41984540492007383        0.00000000    
  -2.7640287543191897E-002  0.42013387787210027        0.00000000    
  -5.4357436334604776E-002  0.42104047201461359        0.00000000    
  -7.9178850277920057E-002  0.42213021939031864        0.00000000    
 -0.10099437656480302       0.42300220375458353        0.00000000    
 -0.11855671951910464       0.42258430081747883        0.00000000    
 -0.13040436519820242       0.41967459438502153        0.00000000    
 -0.13495483693032093       0.41192989951923331        0.00000000    
 -0.13069565488877580       0.39664158971790503        0.00000000    
 -0.11645620309803328       0.36929974063369664        0.00000000    
  -9.2878154271709590E-002  0.32552411216139621        0.00000000    
  -6.1660546127680869E-002  0.26062056623537988        0.00000000    
  -2.8132019569491410E-002  0.17254244144891900        0.00000000    
   3.3843933003578461E-003   6.3221132638670643E-002   0.00000000    
   2.5822449567046376E-002  -6.4175891998008591E-002   0.00000000    
   3.0550801474239202E-002 -0.19551988696474024        0.00000000    
   1.9341378354982869E-002 -0.31196112850947894        0.00000000    
  -2.2329549982159267E-003 -0.40159852903440729        0.00000000    
  -2.5206301578124909E-002 -0.45891688564363037        0.00000000    
  -4.1734967327330515E-002 -0.49169105499791310        0.00000000    
  -5.3730686375953733E-002 -0.50716965838191863        0.00000000    
  -6.0049544246241635E-002 -0.50773463549140951        0.00000000    
  -5.9259054739699932E-002 -0.49942727099964673        0.00000000    
  -5.0078673515835503E-002 -0.48754850356604168        0.00000000    
  -3.0315624091664148E-002 -0.48588216099086734        0.00000000    
  -3.1184932566937726E-004 -0.48985688737072314        0.00000000    
   2.8217782679768398E-002 -0.48895456454644098        0.00000000    
   4.7568467263870859E-002 -0.48956830307965532        0.00000000    
   5.8228085450899580E-002 -0.50214349765605804        0.00000000    
   6.0613362905903238E-002 -0.51344909017605045        0.00000000    
   5.4981433991185727E-002 -0.51818865684302973        0.00000000    
   4.0457649173366091E-002 -0.50884857318987353        0.00000000    
   1.8355787134581483E-002 -0.47727462064335058        0.00000000    
  -7.2899183490898198E-003 -0.41539928207024474        0.00000000    
  -2.7935564438911695E-002 -0.32182484255970256        0.00000000    
  -3.6279058512399813E-002 -0.20438644127960989        0.00000000    
  -2.8862881634929054E-002  -7.7418072471076363E-002   0.00000000    
  -8.8792959142170273E-003   4.5583980016348412E-002   0.00000000    
   1.9786204371689813E-002  0.15565828630704004        0.00000000    
   5.2032464127096473E-002  0.24621698867675626        0.00000000    
   8.2623233183546266E-002  0.31496972794276068        0.00000000    
  0.10715735594311585       0.36272581648709512        0.00000000    
  0.12280738756833177       0.39309058423285925        0.00000000    
  0.12862972534662093       0.41070808499111078        0.00000000    
  0.12552876875709129       0.41998706595054724        0.00000000    
  0.11490604588732417       0.42396383226371775        0.00000000    
   9.8362129002171464E-002  0.42504001440662076        0.00000000    
   7.7367470278418823E-002  0.42460553344434765        0.00000000    
   5.3230778580728590E-002  0.42375732684345674        0.00000000    
   2.7099349912148029E-002  0.42299458086126579        0.00000000    
   0.0000000000000000       0.42273752997590375        0.00000000    
   0.0000000000000000       0.44282201305474028        0.00000000    
  -1.7910132433678103E-002  0.44270768971217400        0.00000000    
  -3.4836863704884417E-002  0.44211054023502228        0.00000000    
  -4.9761675972461963E-002  0.44080637737867440        0.00000000    
  -6.1605211847307037E-002  0.43798510792580658        0.00000000    
  -6.9228907827571892E-002  0.43278743557869009        0.00000000    
  -7.1441429518696364E-002  0.42353162699186647        0.00000000    
  -6.7190522758778501E-002  0.40837243188245059        0.00000000    
  -5.5605737456216539E-002  0.38435509000839824        0.00000000    
  -3.6803019627957206E-002  0.34854407072206001        0.00000000    
  -1.1549482829111155E-002  0.29744819644567627        0.00000000    
   1.7182176379871718E-002  0.22874721459597169        0.00000000    
   4.6125443532729266E-002  0.14194399937514129        0.00000000    
   6.9999729814753595E-002   3.8428875558561650E-002   0.00000000    
   8.3367909135488361E-002  -7.5189870507345075E-002   0.00000000    
   8.3599049697190994E-002 -0.18946540092604741        0.00000000    