 <VTKFile type="UnstructuredGrid" version="0.1" byte_order="BigEndian">
 <UnstructuredGrid>
 <Piece NumberOfPoints="        2601 " NumberOfCells="        2500 ">
 <PointData Scalars="scalars">
 <DataArray type="Float32" NumberOfComponents="3" Name="Velocity" Format="ascii">
   0.0000000000000000        0.0000000000000000        0.00000000    
  -5.1498198211225851E-002   0.0000000000000000        0.00000000    
 -0.10234990531194126        0.0000000000000000        0.00000000    
 -0.15170533650152376        0.0000000000000000        0.00000000    
 -0.19914060678845383        0.0000000000000000        0.00000000    
 -0.24362505066507589        0.0000000000000000        0.00000000    
 -0.28497672177640809        0.0000000000000000        0.00000000    
 -0.32201298006718937        0.0000000000000000        0.00000000    
 -0.35481533328396420        0.0000000000000000        0.00000000    
 -0.38208749626030408        0.0000000000000000        0.00000000    
 -0.40419865367856200        0.0000000000000000        0.00000000    
 -0.41978823767289425        0.0000000000000000        0.00000000    
 -0.42953825192482908        0.0000000000000000        0.00000000    
 -0.43208360563883935        0.0000000000000000        0.00000000    
 -0.42844059836136811        0.0000000000000000        0.00000000    
 -0.41730606544240006        0.0000000000000000        0.00000000    
 -0.40004104222165288        0.0000000000000000        0.00000000    
 -0.37547030617761323        0.0000000000000000        0.00000000    
 -0.34528983973776034        0.0000000000000000        0.00000000    
 -0.30850801898794300        0.0000000000000000        0.00000000    
 -0.26711690383803466        0.0000000000000000        0.00000000    
 -0.22034296460460104        0.0000000000000000        0.00000000    
 -0.17040108811533911        0.0000000000000000        0.00000000    
 -0.11674061907343207        0.0000000000000000        0.00000000    
  -6.1693126739139188E-002   0.0000000000000000        0.00000000    
  -4.9029975551682517E-003   0.0000000000000000        0.00000000    
   5.1310536382739240E-002   0.0000000000000000        0.00000000    
  0.10716364629871108        0.0000000000000000        0.00000000    
  0.16048397623333585        0.0000000000000000        0.00000000    
  0.21141967500220618        0.0000000000000000        0.00000000    
  0.25806494420912768        0.0000000000000000        0.00000000    
  0.30057167045446603        0.0000000000000000        0.00000000    
  0.33738793703398817        0.0000000000000000        0.00000000    
  0.36872746302858195        0.0000000000000000        0.00000000    
  0.39343745360580212        0.0000000000000000        0.00000000    
  0.41182946081466293        0.0000000000000000        0.00000000    
  0.42315284319875079        0.0000000000000000        0.00000000    
  0.42782950382839918        0.0000000000000000        0.00000000    
  0.42547967737200143        0.0000000000000000        0.00000000    
  0.41662899194282976        0.0000000000000000        0.00000000    
  0.40121519357261559        0.0000000000000000        0.00000000    
  0.37984905503548544        0.0000000000000000        0.00000000    
  0.35272302147280338        0.0000000000000000        0.00000000    
  0.32050959397871948        0.0000000000000000        0.00000000    
  0.28359391209745516        0.0000000000000000        0.00000000    
  0.24268709132463834        0.0000000000000000        0.00000000    
  0.19831240783856563        0.0000000000000000        0.00000000    
  0.15119921644088380        0.0000000000000000        0.00000000    
  0.10196483455041774        0.0000000000000000        0.00000000    
   5.1339153030000508E-002   0.0000000000000000        0.00000000    
   0.0000000000000000        0.0000000000000000        0.00000000    
   0.0000000000000000        5.1770448999785112E-002   0.00000000    
  -5.1666718918092901E-002   5.1394468131823155E-002   0.00000000    
 -0.10258265573304676        5.0373175786426923E-002   0.00000000    
 -0.15221033306392601        4.8609932736033500E-002   0.00000000    
 -0.19960570188762086        4.6220706377461999E-002   0.00000000    
 -0.24446323490752794        4.3121270520777598E-002   0.00000000    
 -0.28567044686472615        3.9437612550909135E-002   0.00000000    
 -0.32317379452251321        3.5101993399086269E-002   0.00000000    
 -0.35572531117357997        3.0251876472191137E-002   0.00000000    
 -0.38354635213817923        2.4841327469899820E-002   0.00000000    
 -0.40529702227151171        1.9020500085395593E-002   0.00000000    
 -0.42149887988631612        1.2770941524629256E-002   0.00000000    
 -0.43077496639491031        6.2551592398600578E-003   0.00000000    
 -0.43397163215757428       -5.1313976254518912E-004   0.00000000    
 -0.42973903674883923       -7.3624629194644900E-003   0.00000000    
 -0.41926614155108116       -1.4244965196847342E-002   0.00000000    
 -0.40129834179894242       -2.0987857771630678E-002   0.00000000    
 -0.37736964430283665       -2.7511575768299500E-002   0.00000000    
 -0.34638396937219196       -3.3654565597608835E-002   0.00000000    
 -0.31019777289676975       -3.9313451627581784E-002   0.00000000    
 -0.26792103127880035       -4.4354405135562068E-002   0.00000000    
 -0.22167715289042253       -4.8663412486328397E-002   0.00000000    
 -0.17080345761549648       -5.2152159273022670E-002   0.00000000    
 -0.11759935338890463       -5.4712413995639586E-002   0.00000000    
  -6.1618082121997306E-002  -5.6316349600666504E-002   0.00000000    
  -5.2142844013736509E-003  -5.6877577304129172E-002   0.00000000    
   5.1886296245844163E-002  -5.6436537276092241E-002   0.00000000    
  0.10741001271709504       -5.4940289111320942E-002   0.00000000    
  0.16152518232557156       -5.2495210426915226E-002   0.00000000    
  0.21217068750208717       -4.9085993518603252E-002   0.00000000    
  0.25948384983718592       -4.4872438018637370E-002   0.00000000    
  0.30172263966671092       -3.9873078056253952E-002   0.00000000    
  0.33906083335649118       -3.4281382208397514E-002   0.00000000    
  0.37014265818951303       -2.8139968619100984E-002   0.00000000    
  0.39522641238440920       -2.1653776148531475E-002   0.00000000    
  0.41336548719522376       -1.4877305870845863E-002   0.00000000    
  0.42492649958896317       -8.0070889026969579E-003   0.00000000    
  0.42935526953512787       -1.0983416726063771E-003   0.00000000    
  0.42712828385633683        5.6751538118530020E-003   0.00000000    
  0.41803844279962238        1.2265372674778976E-002   0.00000000    
  0.40265788335963254        1.8528985139235524E-002   0.00000000    
  0.38106584635738183        2.4429190401146245E-002   0.00000000    
  0.35390782917660768        2.9854860345856993E-002   0.00000000    
  0.32148515577819142        3.4781240547912588E-002   0.00000000    
  0.28449271836462797        3.9126878750187534E-002   0.00000000    
  0.24339467733091505        4.2877983057890416E-002   0.00000000    
  0.19891347616900873        4.5977901593078456E-002   0.00000000    
  0.15162657166696075        4.8422194308485031E-002   0.00000000    
  0.10226529569615400        5.0173463555490280E-002   0.00000000    
   5.1481915404399316E-002   5.1235598258803680E-002   0.00000000    
   0.0000000000000000        5.1585470178008692E-002   0.00000000    
   0.0000000000000000       0.10377238593918281        0.00000000    
  -5.2065549133475442E-002  0.10312479924656665        0.00000000    
 -0.10348477110731744       0.10097800346217765        0.00000000    
 -0.15340656979684636        9.7554581084136727E-002   0.00000000    
 -0.20140720240065549        9.2672059457691067E-002   0.00000000    
 -0.24645154443361902        8.6571792497730046E-002   0.00000000    
 -0.28835665986810333        7.9099417965609042E-002   0.00000000    
 -0.32593070207632147        7.0517577855552224E-002   0.00000000    
 -0.35925256470898681        6.0709671298587703E-002   0.00000000    
 -0.38701080000522980        4.9962808910331960E-002   0.00000000    
 -0.40957073697816204        3.8209625749548289E-002   0.00000000    
 -0.42555028400347017        2.5763220507366159E-002   0.00000000    
 -0.43562784065315208        1.2616523412950198E-002   0.00000000    
 -0.43841126235362921       -8.9441646497552985E-004   0.00000000    
 -0.43491616594869187       -1.4708878033868118E-002   0.00000000    
 -0.42380917809756735       -2.8478433123130587E-002   0.00000000    
 -0.40645712365245146       -4.2074244046403891E-002   0.00000000    
 -0.38165528863209625       -5.5155722001196505E-002   0.00000000    
 -0.35111550929705926       -6.7535873634745100E-002   0.00000000    
 -0.31382212048115887       -7.8911728872482323E-002   0.00000000    
 -0.27179540380422162       -8.9059586190361084E-002   0.00000000    
 -0.22424756348568417       -9.7749950128781127E-002   0.00000000    
 -0.17343364242099424      -0.10475323797529622        0.00000000    
 -0.11880084239036755      -0.10994823954067441        0.00000000    
  -6.2728830714795361E-002 -0.11313380700340260        0.00000000    
  -4.8711929474025010E-003 -0.11432155537939404        0.00000000    
   5.2403866457171822E-002 -0.11336819925794747        0.00000000    
  0.10929586781717875      -0.11042434495074828        0.00000000    
  0.16359082348668780      -0.10542127987069282        0.00000000    
  0.21541838535293958       -9.8632991107802562E-002   0.00000000    
  0.26284519839501425       -9.0065415811581478E-002   0.00000000    
  0.30600799712135263       -8.0081688809702345E-002   0.00000000    
  0.34334455331286567       -6.8747521340832132E-002   0.00000000    
  0.37505979422703689       -5.6470895224831751E-002   0.00000000    
  0.40000687221374859       -4.3353681728502159E-002   0.00000000    
  0.41849516775715090       -2.9804770636615734E-002   0.00000000    
  0.42979206576460199       -1.5937534541615339E-002   0.00000000    
  0.43432205959147213       -2.1266597988870459E-003   0.00000000    
  0.43172989521500132        1.1522621990574151E-002   0.00000000    
  0.42254583232474685        2.4691808450150152E-002   0.00000000    
  0.40673331037845589        3.7295630748064745E-002   0.00000000    
  0.38490735211043348        4.9080540068945765E-002   0.00000000    
  0.35728332195489876        5.9985558013075022E-002   0.00000000    
  0.32453613588643365        6.9820402353122729E-002   0.00000000    
  0.28706881021609243        7.8547480028414760E-002   0.00000000    
  0.24559270760184282        8.6031525432335040E-002   0.00000000    
  0.20064318664805270        9.2255081334710748E-002   0.00000000    
  0.15294827984712978        9.7126825873677006E-002   0.00000000    
  0.10313197277092194       0.10064641503855604        0.00000000    
   5.1922485845884436E-002  0.10275551399551555        0.00000000    
   0.0000000000000000       0.10346995569369408        0.00000000    
   0.0000000000000000       0.15644151417774277        0.00000000    
  -5.2792177209031454E-002  0.15531339735249453        0.00000000    
 -0.10483320570620257       0.15224965583070288        0.00000000    
 -0.15558656133946291       0.14695808303892510        0.00000000    
 -0.20410326073711599       0.13978588950925652        0.00000000    
 -0.25007736602113645       0.13047640976222882        0.00000000    
 -0.29238350854432810       0.11940605866511117        0.00000000    
 -0.33096467116170636       0.10636614197930759        0.00000000    
 -0.36454908498240207        9.1767383635919506E-002   0.00000000    
 -0.39335134297644758        7.5465589859569721E-002   0.00000000    
 -0.41599500791450927        5.7910446720383695E-002   0.00000000    
 -0.43299337202790589        3.9040310670194207E-002   0.00000000    
 -0.44292040448456266        1.9344022366824372E-002   0.00000000    
 -0.44661686136445222       -1.1420368447661389E-003   0.00000000    
 -0.44267437768053958       -2.1898837731372960E-002   0.00000000    
 -0.43228543450647516       -4.2784404458233137E-002   0.00000000    
 -0.41413377575993049       -6.3271985890337931E-002   0.00000000    
 -0.38977366532445168       -8.3119925621514587E-002   0.00000000    
 -0.35805324274245709      -0.10183187191791718        0.00000000    
 -0.32087251922736010      -0.11908984292955892        0.00000000    
 -0.27730129332150072      -0.13447941470180330        0.00000000    
 -0.22953227664821921      -0.14764697861904796        0.00000000    
 -0.17688560887411292      -0.15831679830902015        0.00000000    
 -0.12175144461763455      -0.16615164350436423        0.00000000    
  -6.3690784623848848E-002 -0.17106307469396714        0.00000000    
  -5.1588239076765467E-003 -0.17278188618288573        0.00000000    
   5.4090932785202932E-002 -0.17143268453674962        0.00000000    
  0.11169088798921693      -0.16685181624639631        0.00000000    
  0.16777192186944540      -0.15936979810981042        0.00000000    
  0.22020167519625786      -0.14894178807187550        0.00000000    
  0.26908209858442544      -0.13606385526320300        0.00000000    
  0.31263313455300434      -0.12079708406259175        0.00000000    
  0.35100401118924479      -0.10373955890179047        0.00000000    
  0.38283613680878564       -8.5026224206439904E-002   0.00000000    
  0.40837730687143353       -6.5286600783184087E-002   0.00000000    
  0.42670738261666197       -4.4690222878499608E-002   0.00000000    
  0.43819444182219353       -2.3836039500645684E-002   0.00000000    
  0.44232942261289671       -2.8931294642950563E-003   0.00000000    
  0.43959709025309934        1.7613588403182810E-002   0.00000000    
  0.42984259585288986        3.7539399322330365E-002   0.00000000    
  0.41364764038918339        5.6455517295574228E-002   0.00000000    
  0.39114133403902879        7.4252918135220530E-002   0.00000000    
  0.36297601756630254        9.0602526583433235E-002   0.00000000    
  0.32949431157233761       0.10543232584215245        0.00000000    
  0.29139350339615488       0.11850369039290407        0.00000000    
  0.24916763381651155       0.12977728726009438        0.00000000    
  0.20353750114011024       0.13908897314272245        0.00000000    
  0.15509885799172790       0.14642648401475597        0.00000000    
  0.10457931046781607       0.15168261150173626        0.00000000    
   5.2639478942275504E-002  0.15486863598414571        0.00000000    
   0.0000000000000000       0.15591879849591103        0.00000000    
   0.0000000000000000       0.20978525258675434        0.00000000    
  -5.3729280817112472E-002  0.20849111697247641        0.00000000    
 -0.10681410537523850       0.20419778926682150        0.00000000    
 -0.15840103334344627       0.19735023320916678        0.00000000    
 -0.20806783381839589       0.18757723921038472        0.00000000    
 -0.25476769385379250       0.17535902538743531        0.00000000    
 -0.29831539184433625       0.16037728355039652        0.00000000    
 -0.33749303616798232       0.14315372404395618        0.00000000    
 -0.37237178755233835       0.12344296677111090        0.00000000    
 -0.40159583777878755       0.10181631495572072        0.00000000    
 -0.42551827786721391        7.8125826643606899E-002   0.00000000    
 -0.44269268307631582        5.2997700082175213E-002   0.00000000    
 -0.45378505337036085        2.6406035696623358E-002   0.00000000    
 -0.45732099795752135       -9.7164869306251946E-004   0.00000000    
 -0.45431170664849729       -2.9021000886613600E-002   0.00000000    
 -0.44333055865105658       -5.7032332458446848E-002   0.00000000    
 -0.42575913510168767       -8.4747140198148205E-002   0.00000000    
 -0.40030035498956329      -0.11146366184384932        0.00000000    
 -0.36871180498954048      -0.13679710829100855        0.00000000    
 -0.32990143941057071      -0.16011569563190259        0.00000000    
 -0.28597439542207514      -0.18095183190826722        0.00000000    
 -0.23609683497931219      -0.19882113850909869        0.00000000    
 -0.18264720835909432      -0.21323893282849679        0.00000000    
 -0.12506529021228918      -0.22394559136805295        0.00000000    
  -6.5880341922458396E-002 -0.23051473512952528        0.00000000    
  -4.7751156739853362E-003 -0.23296741269160209        0.00000000    
   5.5729261945272064E-002 -0.23100129235588510        0.00000000    
  0.11577914418496131      -0.22493304585068635        0.00000000    
  0.17303117339064281      -0.21462163160688474        0.00000000    
  0.22755632399867409      -0.20064485848980229        0.00000000    
  0.27733726205640630      -0.18302214630603550        0.00000000    
  0.32246352476111750      -0.16251609167396316        0.00000000    
  0.36134401578887082      -0.13927191896836830        0.00000000    
  0.39415740541686128      -0.11413937936935610        0.00000000    
  0.41977900816497182       -8.7336218443804792E-002   0.00000000    
  0.43851308840494951       -5.9704761186349160E-002   0.00000000    
  0.44968601282096382       -3.1481484825711739E-002   0.00000000    
  0.45373172668842476       -3.4283787821679885E-003   0.00000000    
  0.45037262908569414        2.4240267673811659E-002   0.00000000    
  0.44015401752676153        5.0885826024391179E-002   0.00000000    
  0.42311907063080983        7.6338992945144485E-002   0.00000000    
  0.39989581467316559       0.10009900480519143        0.00000000    
  0.37076953685901776       0.12204803419416449        0.00000000    
  0.33642182299286749       0.14181623810138030        0.00000000    
  0.29730930893522961       0.15933310036325821        0.00000000    
  0.25414295367259038       0.17434010213990367        0.00000000    
  0.20749359155397690       0.18680565305567606        0.00000000    
  0.15808385325466823       0.19655818555536916        0.00000000    
  0.10655652950831912       0.20359778123115199        0.00000000    
   5.3633301866241663E-002  0.20781652542619289        0.00000000    
   0.0000000000000000       0.20924368986418582        0.00000000    
   0.0000000000000000       0.26442502287176811        0.00000000    
  -5.4965117482587561E-002  0.26254574498883276        0.00000000    
 -0.10918133273704886       0.25744420106735899        0.00000000    
 -0.16211650396233990       0.24862592060116581        0.00000000    
 -0.21281510277742130       0.23666695111534714        0.00000000    
 -0.26097217993084182       0.22112625066771666        0.00000000    
 -0.30543997271062739       0.20262554904996846        0.00000000    
 -0.34615538905149490       0.18079851920275436        0.00000000    
 -0.38180194467386380       0.15632347863110124        0.00000000    
 -0.41258024224165124       0.12893815088132093        0.00000000    
 -0.43704236443727251        9.9388553016575232E-002   0.00000000    
 -0.45568285710961770        6.7549871579604501E-002   0.00000000    
 -0.46697692292503346        3.4240300325513645E-002   0.00000000    
 -0.47175006197608804       -4.9682969705035923E-004   0.00000000    
 -0.46847324062098622       -3.5781932527718691E-002   0.00000000    
 -0.45834066316360289       -7.1385126287552392E-002   0.00000000    
 -0.43990607374749080      -0.10640035931353289        0.00000000    
 -0.41475931947409750      -0.14041597713119985        0.00000000    
 -0.38162832117128365      -0.17256434128381878        0.00000000    
 -0.34249810000898689      -0.20228904939910641        0.00000000    
 -0.29634992305747249      -0.22885369905704170        0.00000000    
 -0.24551812044152524      -0.25162863443895644        0.00000000    
 -0.18928374157317882      -0.27011544236219776        0.00000000    
 -0.13022715045004246      -0.28370759112498656        0.00000000    
  -6.7925472267583539E-002 -0.29223936181932458        0.00000000    
  -5.0472587610715693E-003 -0.29522622577781571        0.00000000    
   5.8593113440119728E-002 -0.29288722906445769        0.00000000    
  0.12042875117395475      -0.28493262913654954        0.00000000    
  0.18050854157714386      -0.27195386790457515        0.00000000    
  0.23655149493944089      -0.25388072618279089        0.00000000    
  0.28858348012554053      -0.23159920183234259        0.00000000    
  0.33474948218515982      -0.20523130093135430        0.00000000    
  0.37514808437058650      -0.17583580290080267        0.00000000    
  0.40842219867689344      -0.14366299938922564        0.00000000    
  0.43480051950522269      -0.10981252197855529        0.00000000    
  0.45342579556925244       -7.4587813971924460E-002   0.00000000    
  0.46467249897503093       -3.9018059841942725E-002   0.00000000    
  0.46813123791070743       -3.3962565834341706E-003   0.00000000    
  0.46430636017309268        3.1392120833335854E-002   0.00000000    
  0.45315436605308795        6.5104578531616941E-002   0.00000000    
  0.43527747524637556        9.7032078156234533E-002   0.00000000    
  0.41090821405168532       0.12699843673658329        0.00000000    
  0.38071216148054898       0.15447093266130976        0.00000000    
  0.34511547097518547       0.17933774399834831        0.00000000    
  0.30481835606184832       0.20122122344802082        0.00000000    
  0.26037365461800982       0.22006303575675204        0.00000000    
  0.21249619293199040       0.23560954325165304        0.00000000    
  0.16181623307357562       0.24784399351483546        0.00000000    
  0.10905092250890826       0.25660460758829085        0.00000000    
   5.4874935149620142E-002  0.26190891407075512        0.00000000    
   0.0000000000000000       0.26365953823844962        0.00000000    
   0.0000000000000000       0.32012056125949462        0.00000000    
  -5.6369372468532811E-002  0.31818469655535564        0.00000000    
 -0.11210194730593245       0.31175403959259562        0.00000000    
 -0.16634565831223333       0.30149496431387640        0.00000000    
 -0.21868439662523032       0.28683524452739695        0.00000000    
 -0.26805758089023740       0.26848821868365158        0.00000000    
 -0.31427852802457701       0.24595232094165967        0.00000000    
 -0.35609144155287215       0.22000007719293654        0.00000000    
 -0.39355512243190116       0.19023215713269867        0.00000000    
 -0.42524401191211003       0.15749665944350597        0.00000000    
 -0.45148875078517325       0.12153690551043422        0.00000000    
 -0.47073702368475018        8.3290284676411627E-002   0.00000000    
 -0.48362892874517605        4.2685858089026300E-002   0.00000000    
 -0.48854986169489989        7.5168456174870199E-004   0.00000000    
 -0.48649543197099665       -4.2361697883729121E-002   0.00000000    
 -0.47587501062996596       -8.5558359705860509E-002   0.00000000    
 -0.45808538657928155      -0.12845133938265133        0.00000000    
 -0.43166208863035643      -0.16993504925804021        0.00000000    
 -0.39843201122094496      -0.20940634489192503        0.00000000    
 -0.35716051715254088      -0.24584876099344649        0.00000000    
 -0.31009420616228806      -0.27850847542887647        0.00000000    
 -0.25631040533957683      -0.30658946147607075        0.00000000    
 -0.19840333622961853      -0.32929606332901123        0.00000000    
 -0.13579636554061655      -0.34619053193964744        0.00000000    
  -7.1287090877626705E-002 -0.35656737387642756        0.00000000    
  -4.6124611799589757E-003 -0.36045105689381673        0.00000000    
   6.1429759149979460E-002 -0.35734499050603746        0.00000000    
  0.12688548668947250      -0.34776623293737224        0.00000000    
  0.18917974814902011      -0.33149431599251555        0.00000000    
  0.24827409464476050      -0.30947757792266789        0.00000000    
  0.30200709665112579      -0.28176733730999048        0.00000000    
  0.35038357375574580      -0.24960564458895107        0.00000000    
  0.39177248794362018      -0.21324897564010320        0.00000000    
  0.42630961339902923      -0.17406106638434068        0.00000000    
  0.45292307097120293      -0.13240623340563895        0.00000000    
  0.47191393923876435       -8.9610246851226955E-002   0.00000000    
  0.48272418619868807       -4.6052577347771559E-002   0.00000000    
  0.48580951791209265       -2.9058097039061171E-003   0.00000000    
  0.48103571821794794        3.9500351368698672E-002   0.00000000    
  0.46897696422616658        8.0207096128137562E-002   0.00000000    
  0.44981792626620459       0.11896548931230626        0.00000000    
  0.42420889036240411       0.15504332269622276        0.00000000    
  0.39255510349852962       0.18827588612555105        0.00000000    
  0.35554702972109731       0.21813755483110736        0.00000000    
  0.31373023040702447       0.24453532683461027        0.00000000    
  0.26781095138518235       0.26711291284693645        0.00000000    
  0.21841632698996469       0.28583175223778950        0.00000000    
  0.16625511511949884       0.30046295626550101        0.00000000    
  0.11199736888817224       0.31100870163189587        0.00000000    
   5.6348805904389843E-002  0.31732937037493469        0.00000000    
   0.0000000000000000       0.31946282298977308        0.00000000    
   0.0000000000000000       0.37765907891112460        0.00000000    
  -5.8019646726774489E-002  0.37503519810038849        0.00000000    
 -0.11530109596108634       0.36791756212445936        0.00000000    
 -0.17132486307867900       0.35559891990343701        0.00000000    
 -0.22513393985536209       0.33887910403651555        0.00000000    
 -0.27642941814091571       0.31711302171882672        0.00000000    
 -0.32403868882626558       0.29115773573894871        0.00000000    
 -0.36789197104924820       0.26046085813691283        0.00000000    
 -0.40661360408227087       0.22595669011725536        0.00000000    
 -0.44038243513494685       0.18722984697816353        0.00000000    
 -0.46764834816918294       0.14531436990315524        0.00000000    
 -0.48887255779785421        9.9985302794743228E-002   0.00000000    
 -0.50238168636378100        5.2391873620563356E-002   0.00000000    
 -0.50896804271189622        2.5529583075219377E-003   0.00000000    
 -0.50691332904846154       -4.8272114990114461E-002   0.00000000    
 -0.49740010258150014       -9.9781590431063868E-002   0.00000000    
 -0.47877016797820393      -0.15064766728179890        0.00000000    
 -0.45265268374947754      -0.20027950356286217        0.00000000    
 -0.41757198862012324      -0.24737266309372852        0.00000000    
 -0.37563358420154835      -0.29109234130722333        0.00000000    
 -0.32566281869944336      -0.33030197157328867        0.00000000    
 -0.27021347056394124      -0.36402911432023205        0.00000000    
 -0.20849377236721126      -0.39148317775590702        0.00000000    
 -0.14339295187709247      -0.41171120872338984        0.00000000    
  -7.4513376798149081E-002 -0.42443554679815704        0.00000000    
  -4.8778070182653281E-003 -0.42889308348165928        0.00000000    
   6.5592962693053106E-002 -0.42541595392283110        0.00000000    
  0.13400133906551637      -0.41355937346437943        0.00000000    
  0.20025291487444705      -0.39424701269788592        0.00000000    
  0.26182749928356547      -0.36739381215315559        0.00000000    
  0.31862209021854299      -0.33437869598591746        0.00000000    
  0.36867385753788279      -0.29542253036650745        0.00000000    
  0.41200192457192047      -0.25214907105130030        0.00000000    
  0.44727248227545979      -0.20496865415957916        0.00000000    
  0.47469171763629009      -0.15553133853253623        0.00000000    
  0.49352418364181688      -0.10430847602238941        0.00000000    
  0.50416382229553258       -5.2804233762103914E-002   0.00000000    
  0.50637544478174568       -1.4511075112584558E-003   0.00000000    
  0.50070071031745722        4.8494183359561113E-002   0.00000000    
  0.48728004973845196        9.6692678689201922E-002   0.00000000    
  0.46674957898043906       0.14216941549096507        0.00000000    
  0.43950526761517988       0.18469274377119504        0.00000000    
  0.40623076647683276       0.22355475307103026        0.00000000    
  0.36747894329572128       0.25861858483233402        0.00000000    
  0.32394915961375775       0.28940087984400009        0.00000000    
  0.27627936751235327       0.31583643095265240        0.00000000    
  0.22516843145788062       0.33761379459260893        0.00000000    
  0.17129285756089926       0.35471769967375372        0.00000000    
  0.11534656083428246       0.36695800118864441        0.00000000    
   5.8018643334808696E-002  0.37435655130086942        0.00000000    
   0.0000000000000000       0.37680309130628203        0.00000000    
   0.0000000000000000       0.43652361957659824        0.00000000    
  -5.9769665784499867E-002  0.43395996994960262        0.00000000    
 -0.11892252309899899       0.42542709682303648        0.00000000    
 -0.17661936504611619       0.41180999427741122        0.00000000    
 -0.23246009327796030       0.39231783466563125        0.00000000    
 -0.28537707530001455       0.36788675140956106        0.00000000    
 -0.33518673072667937       0.33780293215041496        0.00000000    
 -0.38059257927464740       0.30307479251298480        0.00000000    
 -0.42163782873980959       0.26310963822525008        0.00000000    
 -0.45680955579975774       0.21901745700363257        0.00000000    
 -0.48640342231339084       0.17038653940725007        0.00000000    
 -0.50872366779611566       0.11845758842699089        0.00000000    
 -0.52436348927436904        6.3068538010180905E-002   0.00000000    
 -0.53150735037812968        5.6065113986201748E-003   0.00000000    
 -0.53111101248364700       -5.3776719665201193E-002   0.00000000    
 -0.52133705575051170      -0.11356416892363902        0.00000000    