 <VTKFile type="UnstructuredGrid" version="0.1" byte_order="BigEndian">
 <UnstructuredGrid>
 <Piece NumberOfPoints="        2601 " NumberOfCells="        2500 ">
 <PointData Scalars="scalars">
 <DataArray type="Float32" NumberOfComponents="3" Name="Velocity" Format="ascii">
   0.0000000000000000        0.0000000000000000        0.00000000    
  -6.8549576906878615E-002   0.0000000000000000        0.00000000    
 -0.13625854575175161        0.0000000000000000        0.00000000    
 -0.20218791453016535        0.0000000000000000        0.00000000    
 -0.26560403868600768        0.0000000000000000        0.00000000    
 -0.32548067547497805        0.0000000000000000        0.00000000    
 -0.38120394872974217        0.0000000000000000        0.00000000    
 -0.43168097434928415        0.0000000000000000        0.00000000    
 -0.47644065997141199        0.0000000000000000        0.00000000    
 -0.51435985600428979        0.0000000000000000        0.00000000    
 -0.54514772858283689        0.0000000000000000        0.00000000    
 -0.56770735374473913        0.0000000000000000        0.00000000    
 -0.58198109319066726        0.0000000000000000        0.00000000    
 -0.58697529194866915        0.0000000000000000        0.00000000    
 -0.58292975955261517        0.0000000000000000        0.00000000    
 -0.56904593524213476        0.0000000000000000        0.00000000    
 -0.54592574042269271        0.0000000000000000        0.00000000    
 -0.51305874964828080        0.0000000000000000        0.00000000    
 -0.47145644304453943        0.0000000000000000        0.00000000    
 -0.42097006890026029        0.0000000000000000        0.00000000    
 -0.36302949648170307        0.0000000000000000        0.00000000    
 -0.29787807031223712        0.0000000000000000        0.00000000    
 -0.22731552636741090        0.0000000000000000        0.00000000    
 -0.15194601335331182        0.0000000000000000        0.00000000    
  -7.3825581750982999E-002   0.0000000000000000        0.00000000    
   6.1783039869366049E-003   0.0000000000000000        0.00000000    
   8.5921679618731844E-002   0.0000000000000000        0.00000000    
  0.16442231788339723        0.0000000000000000        0.00000000    
  0.23964291442635866        0.0000000000000000        0.00000000    
  0.31065387950159901        0.0000000000000000        0.00000000    
  0.37570591064511932        0.0000000000000000        0.00000000    
  0.43406993067281718        0.0000000000000000        0.00000000    
  0.48441620955338144        0.0000000000000000        0.00000000    
  0.52631414954266809        0.0000000000000000        0.00000000    
  0.55891447084602575        0.0000000000000000        0.00000000    
  0.58212063593851660        0.0000000000000000        0.00000000    
  0.59555414773698567        0.0000000000000000        0.00000000    
  0.59943230900529121        0.0000000000000000        0.00000000    
  0.59378474893200528        0.0000000000000000        0.00000000    
  0.57908571319306257        0.0000000000000000        0.00000000    
  0.55568285782665272        0.0000000000000000        0.00000000    
  0.52423611137011561        0.0000000000000000        0.00000000    
  0.48531753626928975        0.0000000000000000        0.00000000    
  0.43970518121254942        0.0000000000000000        0.00000000    
  0.38811479505026403        0.0000000000000000        0.00000000    
  0.33138917021051434        0.0000000000000000        0.00000000    
  0.27032752947719879        0.0000000000000000        0.00000000    
  0.20580136035644694        0.0000000000000000        0.00000000    
  0.13865414050996605        0.0000000000000000        0.00000000    
   6.9765175977756139E-002   0.0000000000000000        0.00000000    
   0.0000000000000000        0.0000000000000000        0.00000000    
   0.0000000000000000        6.8843791129305873E-002   0.00000000    
  -6.8692791844969278E-002   6.8398577620179590E-002   0.00000000    
 -0.13649656778781852        6.7114167165404109E-002   0.00000000    
 -0.20262479477137951        6.4943428593984373E-002   0.00000000    
 -0.26609426081156212        6.1942161600125431E-002   0.00000000    
 -0.32623013673433154        5.8070351108805103E-002   0.00000000    
 -0.38196931591435457        5.3392101324288968E-002   0.00000000    
 -0.43276533242271736        4.7880940800585185E-002   0.00000000    
 -0.47750229510663444        4.1615707503986764E-002   0.00000000    
 -0.51579155900964213        3.4592752428649953E-002   0.00000000    
 -0.54651004053373076        2.6913601672727140E-002   0.00000000    
 -0.56947219446069941        1.8608177412682572E-002   0.00000000    
 -0.58361473848501189        9.8081060565072698E-003   0.00000000    
 -0.58901522278472229        5.8657699754130466E-004   0.00000000    
 -0.58475644393647241       -8.8908882427005589E-003   0.00000000    
 -0.57124653129123959       -1.8502848716865365E-002   0.00000000    
 -0.54781052112927830       -2.8053356265214560E-002   0.00000000    
 -0.51524761016754694       -3.7376545474949945E-002   0.00000000    
 -0.47321355403821075       -4.6259817258648889E-002   0.00000000    
 -0.42293157829282307       -5.4508532635181517E-002   0.00000000    
 -0.36444542082769948       -6.1918197248894503E-002   0.00000000    
 -0.29938592769312156       -6.8292722059423397E-002   0.00000000    
 -0.22818763705109840       -7.3468112527730473E-002   0.00000000    
 -0.15280807767085858       -7.7280959870954499E-002   0.00000000    
  -7.4007446617212314E-002  -7.9640102785274822E-002   0.00000000    
   6.0753341363579414E-003  -8.0446563710591709E-002   0.00000000    
   8.6482745674621220E-002  -7.9704223459712814E-002   0.00000000    
  0.16508391451936363       -7.7397583654058966E-002   0.00000000    
  0.24089024115017638       -7.3629339519996492E-002   0.00000000    
  0.31197578961218697       -6.8467174021564214E-002   0.00000000    
  0.37748653602282012       -6.2095603532946693E-002   0.00000000    
  0.43586450401278665       -5.4646384488932304E-002   0.00000000    
  0.48651790378526222       -4.6353294164577910E-002   0.00000000    
  0.52835490923374639       -3.7381651277278598E-002   0.00000000    
  0.56111292865696571       -2.7976689449912769E-002   0.00000000    
  0.58418920562209875       -1.8305752611640524E-002   0.00000000    
  0.59765454982389121       -8.5931033894043659E-003   0.00000000    
  0.60135360179565522        1.0158901455844919E-003   0.00000000    
  0.59564697043298565        1.0338301289399721E-002   0.00000000    
  0.58074441692409839        1.9263287954874649E-002   0.00000000    
  0.55722770245084863        2.7656281883612330E-002   0.00000000    
  0.52557537621035877        3.5442790810065454E-002   0.00000000    
  0.48651799769928017        4.2533162800456645E-002   0.00000000    
  0.44071336444734999        4.8883825505077361E-002   0.00000000    
  0.38897922599685014        5.4440699106110005E-002   0.00000000    
  0.33208165248321786        5.9182499244352579E-002   0.00000000    
  0.27088111828567485        6.3079675684689390E-002   0.00000000    
  0.20620296458120599        6.6124647137832379E-002   0.00000000    
  0.13892299612380579        6.8302541164011826E-002   0.00000000    
   6.9896446041830984E-002   6.9612973447694029E-002   0.00000000    
   0.0000000000000000        7.0048648569635275E-002   0.00000000    
   0.0000000000000000       0.13792032732830034        0.00000000    
  -6.9067347701071091E-002  0.13708218096507876        0.00000000    
 -0.13730180984065560       0.13446880190012017        0.00000000    
 -0.20377105251970051       0.13018626352039872        0.00000000    
 -0.26774750949370929       0.12414524968441343        0.00000000    
 -0.32820768306700598       0.11646331251977683        0.00000000    
 -0.38453962558857396       0.10707026161075194        0.00000000    
 -0.43564642479107524        9.6105596224843895E-002   0.00000000    
 -0.48105268294069325        8.3534272908447005E-002   0.00000000    
 -0.51962197677430855        6.9532744761324358E-002   0.00000000    
 -0.55105179591656539        5.4121910000934442E-002   0.00000000    
 -0.57422140835842728        3.7531635454454031E-002   0.00000000    
 -0.58905478336799444        1.9860567042527876E-002   0.00000000    
 -0.59452492387791089        1.4047408229038239E-003   0.00000000    
 -0.59084984640419080       -1.7642908396710174E-002   0.00000000    
 -0.57719242060974063       -3.6918167000216488E-002   0.00000000    
 -0.55413569829240883       -5.6130770468372761E-002   0.00000000    
 -0.52113327976391188       -7.4864460759192189E-002   0.00000000    
 -0.47918913578052430       -9.2750102094816933E-002   0.00000000    
 -0.42813108766946689      -0.10935827165220313        0.00000000    
 -0.36940091862879887      -0.12428478474573276        0.00000000    
 -0.30323991905401815      -0.13714662726835908        0.00000000    
 -0.23148320303349640      -0.14756921398968342        0.00000000    
 -0.15475772930003354      -0.15528489151890393        0.00000000    
  -7.5175205354715072E-002 -0.16001932614478914        0.00000000    
   6.3539867952702861E-003 -0.16167931325074272        0.00000000    
   8.7620962872813762E-002 -0.16014586154389315        0.00000000    
  0.16759272174590076      -0.15552887328385828        0.00000000    
  0.24417335268954077      -0.14788500747307054        0.00000000    
  0.31638959641857661      -0.13751329825585576        0.00000000    
  0.38245397124564168      -0.12462460054454609        0.00000000    
  0.44161219367107768      -0.10965357788934001        0.00000000    
  0.49252388808833275       -9.2911194961754970E-002   0.00000000    
  0.53475532541047777       -7.4892193247723754E-002   0.00000000    
  0.56747220260251763       -5.5941044102148209E-002   0.00000000    
  0.59059281057594903       -3.6538282895435356E-002   0.00000000    
  0.60377050840406887       -1.7003615142435844E-002   0.00000000    
  0.60724687174239789        2.2509865905188079E-003   0.00000000    
  0.60108919312065578        2.0967514822527091E-002   0.00000000    
  0.58579665833717898        3.8829162715520109E-002   0.00000000    
  0.56175109819154811        5.5652681736101536E-002   0.00000000    
  0.52963184388748241        7.1217971502921987E-002   0.00000000    
  0.49003617754793927        8.5411026953107413E-002   0.00000000    
  0.44375324156837936        9.8093530584066738E-002   0.00000000    
  0.39151338623766974       0.10920498780386252        0.00000000    
  0.33416225717166970       0.11866691312572952        0.00000000    
  0.27250403640498083       0.12645401676373338        0.00000000    
  0.20740661795049736       0.13252587821657991        0.00000000    
  0.13971112049179563       0.13687677599821602        0.00000000    
   7.0289368811122799E-002  0.13948704037431364        0.00000000    
   0.0000000000000000       0.14036039649348228        0.00000000    
   0.0000000000000000       0.20755348310038019        0.00000000    
  -6.9709308478035859E-002  0.20622568136950284        0.00000000    
 -0.13854518511832986       0.20239564027409154        0.00000000    
 -0.20573603445443842       0.19591951715785841        0.00000000    
 -0.27030934885786551       0.18696176742402446        0.00000000    
 -0.33159938205072681       0.17539700154148544        0.00000000    
 -0.38854308916880176       0.16141222222943399        0.00000000    
 -0.44059252684570865       0.14491987247962312        0.00000000    
 -0.48661565624502801       0.12614938420445448        0.00000000    
 -0.52620827641764389       0.10507954746450857        0.00000000    
 -0.55821073834087220        8.2007388366164280E-002   0.00000000    
 -0.58240694215134114        5.7011973333451260E-002   0.00000000    
 -0.59767575432840114        3.0482416354129988E-002   0.00000000    
 -0.60405274785818053        2.6300255418752376E-003   0.00000000    
 -0.60054644482455644       -2.6049573618066733E-002   0.00000000    
 -0.58752119049397444       -5.5194181913962963E-002   0.00000000    
 -0.56422352994568159       -8.4209138414390025E-002   0.00000000    
 -0.53142248980215412      -0.11258955149611988        0.00000000    
 -0.48870985422113339      -0.13968179091564958        0.00000000    
 -0.43731019885174743      -0.16488428632345281        0.00000000    
 -0.37723838908053475      -0.18756074887907537        0.00000000    
 -0.31017195829689570      -0.20709809350563160        0.00000000    
 -0.23656589497020089      -0.22298052709187688        0.00000000    
 -0.15847168792528044      -0.23469325920765335        0.00000000    
  -7.6718782184258441E-002 -0.24194638813437105        0.00000000    
   6.4273966962030745E-003 -0.24442762230431991        0.00000000    
   8.9909577257254666E-002 -0.24214670912085945        0.00000000    
  0.17146670299773301      -0.23505691033310289        0.00000000    
  0.25000992320440413      -0.22348082156626234        0.00000000    
  0.32351200788743040      -0.20763581258709068        0.00000000    
  0.39104708533303223      -0.18810153847848776        0.00000000    
  0.45100778230924776      -0.16529555936893367        0.00000000    
  0.50277468105710132      -0.13994780664035048        0.00000000    
  0.54526339736301688      -0.11257573520842075        0.00000000    
  0.57822637061155668       -8.3937352575838342E-002   0.00000000    
  0.60111262537949028       -5.4548837173549344E-002   0.00000000    
  0.61403609198080267       -2.5094225288413027E-002   0.00000000    
  0.61691556700202532        3.9857583674072243E-003   0.00000000    
  0.61016397373513898        3.2142014938662845E-002   0.00000000    
  0.59406588940197613        5.9045281707467742E-002   0.00000000    
  0.56924892975491415        8.4299082540231052E-002   0.00000000    
  0.53625211295133091       0.10768764179892069        0.00000000    
  0.49583657366069417       0.12895256228961899        0.00000000    
  0.44869959352842165       0.14797191135293597        0.00000000    
  0.39567205223788343       0.16459400365749072        0.00000000    
  0.33753851338610391       0.17876256518451800        0.00000000    
  0.27515752089739209       0.19039757796050052        0.00000000    
  0.20935572977538960       0.19948152659203625        0.00000000    
  0.14099662134703470       0.20597573350886852        0.00000000    
   7.0924911069188218E-002  0.20988154481902152        0.00000000    
   0.0000000000000000       0.21118017192703240        0.00000000    
   0.0000000000000000       0.27784609343237249        0.00000000    
  -7.0543924889987480E-002  0.27618630440359471        0.00000000    
 -0.14028005620279724       0.27100702518959596        0.00000000    
 -0.20829816224882219       0.26251708762411663        0.00000000    
 -0.27389082123954334       0.25053017034684033        0.00000000    
 -0.33604523569969691       0.23527304627287701        0.00000000    
 -0.39415718073563466       0.21659182964542104        0.00000000    
 -0.44712032626111770       0.19475284826877265        0.00000000    
 -0.49444804099141104       0.16966725253673801        0.00000000    
 -0.53496638535308272       0.14167264367079277        0.00000000    
 -0.56833858181813857       0.11078895053846637        0.00000000    
 -0.59337340377958203        7.7461436938837835E-002   0.00000000    
 -0.60993856991091489        4.1866931045969544E-002   0.00000000    
 -0.61690542084179267        4.5893553179024637E-003   0.00000000    
 -0.61442302651699687       -3.3997600765071072E-002   0.00000000    
 -0.60153361089689306       -7.3160824709097391E-002   0.00000000    
 -0.57875780778044716      -0.11231595929782673        0.00000000    
 -0.54543360976956623      -0.15060796875734456        0.00000000    
 -0.50253610180406538      -0.18727351721589433        0.00000000    
 -0.44981479527213186      -0.22141352191376382        0.00000000    
 -0.38874321578484988      -0.25217490256311548        0.00000000    
 -0.31955183548558502      -0.27874175089294528        0.00000000    
 -0.24418314652215090      -0.30031162201120498        0.00000000    
 -0.16333425757680806      -0.31630526026652267        0.00000000    
  -7.9291173468205717E-002 -0.32613037694200914        0.00000000    
   6.8990606365098460E-003 -0.32958004646957761        0.00000000    
   9.2821948548359623E-002 -0.32639935344544663        0.00000000    
  0.17728205273936348      -0.31682149592781311        0.00000000    
  0.25799830227963871      -0.30097570573519156        0.00000000    
  0.33385944754440922      -0.27950415835417614        0.00000000    
  0.40296012802486392      -0.25286895065360726        0.00000000    
  0.46446970951736005      -0.22199842565142516        0.00000000    
  0.51701967842503038      -0.18756180802872324        0.00000000    
  0.56017170799897675      -0.15060247968973373        0.00000000    
  0.59314483377072880      -0.11184670712912892        0.00000000    
  0.61590886673782297       -7.2289770346232421E-002   0.00000000    
  0.62822163176067036       -3.2589523752998291E-002   0.00000000    
  0.63040342846639863        6.4197851128215584E-003   0.00000000    
  0.62264073147137156        4.4222278443386082E-002   0.00000000    
  0.60551056241373158        8.0193271599945229E-002   0.00000000    
  0.57949972786973669       0.11397888682845779        0.00000000    
  0.54534592066410970       0.14515846152484607        0.00000000    
  0.50372154086980836       0.17352166163976071        0.00000000    
  0.45544732162273160       0.19881401138558361        0.00000000    
  0.40129529073338888       0.22093147579737002        0.00000000    
  0.34211724930035370       0.23973667333136539        0.00000000    
  0.27872972306097182       0.25519198853592856        0.00000000    
  0.21198744383551310       0.26723118636444126        0.00000000    
  0.14272211310489125       0.27585051289116697        0.00000000    
   7.1780997852626732E-002  0.28101959096565793        0.00000000    
   0.0000000000000000       0.28274803469948573        0.00000000    
   0.0000000000000000       0.34917446066590879        0.00000000    
  -7.1587686595770889E-002  0.34698954865297310        0.00000000    
 -0.14233700741122229       0.34068923306765270        0.00000000    
 -0.21150994296860337       0.33002592134460462        0.00000000    
 -0.27815990884660308       0.31526396149626301        0.00000000    
 -0.34164315515406773       0.29617691588419787        0.00000000    
 -0.40090198899680429       0.27305873891597360        0.00000000    
 -0.45538930968374525       0.24573640520176668        0.00000000    
 -0.50394610087212133       0.21456820152760517        0.00000000    
 -0.54613987836357059       0.17948381652218984        0.00000000    
 -0.58074166839526764       0.14095176419097386        0.00000000    
 -0.60747441436847971        9.9066191208194543E-002   0.00000000    
 -0.62510118838496331        5.4454116933481046E-002   0.00000000    
 -0.63356923227661555        7.4370642382720984E-003   0.00000000    
 -0.63173222175660737       -4.1164714519389634E-002   0.00000000    
 -0.61985728426986586       -9.0758064078010861E-002   0.00000000    
 -0.59702087782897861      -0.14033092947373349        0.00000000    
 -0.56391855800996005      -0.18901951642928844        0.00000000    
 -0.51999705410102448      -0.23568098140442117        0.00000000    
 -0.46647189874367767      -0.27925251963379699        0.00000000    
 -0.40328575910045217      -0.31859362395843766        0.00000000    
 -0.33220576636259080      -0.35259440255505953        0.00000000    
 -0.25372395723339608      -0.38030946842570873        0.00000000    
 -0.17008858306469712      -0.40079167698704793        0.00000000    
  -8.2278129773507250E-002 -0.41349749760478349        0.00000000    
   7.1690046471420609E-003 -0.41785029435343918        0.00000000    
   9.6975716704743517E-002 -0.41385870551446508        0.00000000    
  0.18459810409967059      -0.40144463546587067        0.00000000    
  0.26872771920635963      -0.38119843082785709        0.00000000    
  0.34712083819098349      -0.35353569753152475        0.00000000    
  0.41869985145182359      -0.31951710520202792        0.00000000    
  0.48175964023447920      -0.27991964139788300        0.00000000    
  0.53563083428804226      -0.23606175522903164        0.00000000    
  0.57925794805769570      -0.18888167585154395        0.00000000    
  0.61243697283435261      -0.13971966150260343        0.00000000    
  0.63473954413964084       -8.9483420262196967E-002   0.00000000    
  0.64637981636898478       -3.9348911077667435E-002   0.00000000    
  0.64744076903086201        9.9364230544834904E-003   0.00000000    
  0.63844899527739363        5.7460111260046062E-002   0.00000000    
  0.61984711859495312       0.10268748450975761        0.00000000    
  0.59235714474477674       0.14498548232079975        0.00000000    
  0.55664021863833979       0.18402259933284332        0.00000000    
  0.51351646899884951       0.21940565327162292        0.00000000    
  0.46375880026146243       0.25096190772840027        0.00000000    
  0.40821982453044875       0.27847458607902065        0.00000000    
  0.34771605131210781       0.30187537769327510        0.00000000    
  0.28309721409335803       0.32105964763428307        0.00000000    
  0.21518764080657682       0.33601537977249663        0.00000000    
  0.14482172130718876       0.34669756971326571        0.00000000    
   7.2818861944722826E-002  0.35311650875444939        0.00000000    
   0.0000000000000000       0.35525097670619599        0.00000000    
   0.0000000000000000       0.42147056994476118        0.00000000    
  -7.2744677939927810E-002  0.41902580390808847        0.00000000    
 -0.14472936589194951       0.41138698657581191        0.00000000    
 -0.21508738137019079       0.39885911887280434        0.00000000    
 -0.28315094191492995       0.38114429038413744        0.00000000    
 -0.34793315251064416       0.35856204390270324        0.00000000    
 -0.40884912181854655       0.33084841403898207        0.00000000    
 -0.46478600493985744       0.29837093389266489        0.00000000    
 -0.51524451806689897       0.26094897714055471        0.00000000    
 -0.55899673091491242       0.21904903125678771        0.00000000    
 -0.59565216243499075       0.17264377099417227        0.00000000    
 -0.62390649922445718       0.12236126717813932        0.00000000    
 -0.64353108900450773        6.8410404743748904E-002   0.00000000    
 -0.65322363959894125        1.1641370926846977E-002   0.00000000    
 -0.65300680420744817       -4.7422867138016925E-002   0.00000000    
 -0.64170561786495406      -0.10767603527371154        0.00000000    
 -0.61971655359470734      -0.16823842900977412        0.00000000    
 -0.58615793672033467      -0.22777295356978966        0.00000000    
 -0.54193350440368493      -0.28507348051192188        0.00000000    
 -0.48663245040569564      -0.33868622986312846        0.00000000    
 -0.42176551365782400      -0.38721299014410127        0.00000000    
 -0.34752660589577211      -0.42929393684951961        0.00000000    
 -0.26604032405663008      -0.46357802512455876        0.00000000    
 -0.17812602255014903      -0.48907279594274178        0.00000000    
  -8.6386354568350671E-002 -0.50476649994765832        0.00000000    
   7.8744541330473712E-003 -0.51028923511162239        0.00000000    
  0.10185925204033730      -0.50521127474685146        0.00000000    
  0.19406404522726436      -0.48991924679450932        0.00000000    
  0.28186489698251432      -0.46465428638642220        0.00000000    
  0.36389551014670124      -0.43050357410160345        0.00000000    
  0.43804282785939780      -0.38827555962985483        0.00000000    
  0.50334806875017657      -0.33952621662444016        0.00000000    
  0.55841130749262236      -0.28538961282153130        0.00000000    
  0.60280563534309506      -0.22757525986162774        0.00000000    
  0.63587054972347645      -0.16727001667093394        0.00000000    
  0.65768747543404837      -0.10605256209400217        0.00000000    
  0.66822002244003365       -4.4952588500623065E-002   0.00000000    
  0.66793984407904516        1.4759326190222652E-002   0.00000000    
  0.65725255003107375        7.2316275908456448E-002   0.00000000    
  0.63687398111704074       0.12681176546927816        0.00000000    
  0.60747261818252141       0.17775253813095848        0.00000000    
  0.56988254540016681       0.22456254242061305        0.00000000    
  0.52489798691889733       0.26697401829195300        0.00000000    
  0.47338565243340786       0.30466354593770067        0.00000000    
  0.41617897994171349       0.33751859608217033        0.00000000    
  0.35413158179054793       0.36538253906397045        0.00000000    
  0.28807184044139289       0.38823106482365927        0.00000000    
  0.21882468538985511       0.40600069092334851        0.00000000    
  0.14719854791153292       0.41870431553472448        0.00000000    
   7.3993104132112422E-002  0.42631806607435013        0.00000000    
   0.0000000000000000       0.42886138546016689        0.00000000    
   0.0000000000000000       0.49512246534733889        0.00000000    
  -7.4010406796203881E-002  0.49212899323855741        0.00000000    
 -0.14724389644519001       0.48350197484618318        0.00000000    
 -0.21902125468020953       0.46887950430969116        0.00000000    
 -0.28844544100343528       0.44861165181796586        0.00000000    
 -0.35491488972368079       0.42234634177591518        0.00000000    
 -0.41739305038097557       0.39045824613663166        0.00000000    
 -0.47534397655414073       0.35264891107766227        0.00000000    
 -0.52758257572328826       0.30936811226031141        0.00000000    
 -0.57364238214887819       0.26044191539591854        0.00000000    
 -0.61220221496544769       0.20646615120311942        0.00000000    
 -0.64289602213793173       0.14748703091359092        0.00000000    
 -0.66431582816949675        8.4329036834137797E-002   0.00000000    
 -0.67626712035384351        1.7366581594945533E-002   0.00000000    
 -0.67735765156882921       -5.2274381965727729E-002   0.00000000    
 -0.66768445292152667      -0.12379890545867253        0.00000000    
 -0.64603541721194102      -0.19575365878527834        0.00000000    
 -0.61296018118489537      -0.26689157672091968        0.00000000    
 -0.56764042639561274      -0.33549904444517398        0.00000000    
 -0.51124382825672143      -0.39995831809397575        0.00000000    
 -0.44356144053049185      -0.45849022636401010        0.00000000    
 -0.36648116824203025      -0.50933588070890734        0.00000000    
 -0.28053647980982011      -0.55096705151187175        0.00000000    
 -0.18829331529561111      -0.58184123560593337        0.00000000    
  -9.0983074808087483E-002 -0.60104796872840138        0.00000000    
   8.3900871337818945E-003 -0.60764173700439283        0.00000000    
  0.10815967837983435      -0.60161316198191817        0.00000000    
  0.20529306890961921      -0.58285554330620537        0.00000000    
  0.29809766533246085      -0.55232343802781891        0.00000000    
  0.38396653924930874      -0.51073390957048770        0.00000000    
  0.46157461661481053      -0.45980061921526322        0.00000000    
  0.52907629082469043      -0.40080807216757691        0.00000000    
  0.58574638811082969      -0.33584109328467809        0.00000000    
  0.63061535835010818      -0.26638707751429308        0.00000000    
  0.66358438280468746      -0.19449213783295127        0.00000000    
  0.68446280083084243      -0.12152578469257824        0.00000000    
  0.69365273420172591       -4.9201846260978996E-002   0.00000000    
  0.69152472944515808        2.1416767046733832E-002   0.00000000    
  0.67879747355937614        8.9073385001066430E-002   0.00000000    
  0.65616943925244231       0.15306125957888561        0.00000000    
  0.62450810669011092       0.21256573953085245        0.00000000    
  0.58465728493710611       0.26719023554009697        0.00000000    
  0.53751758931717197       0.31647057928351774        0.00000000    
  0.48396434761001428       0.36023256112563545        0.00000000    
  0.42487001352616099       0.39825058747677539        0.00000000    
  0.36108528159559200       0.43048267774081800        0.00000000    
  0.29343405315561055       0.45684189594006663        0.00000000    
  0.22272487609709191       0.47734619190959454        0.00000000    
  0.14973795701896475       0.49197187110616647        0.00000000    
   7.5244841908317872E-002  0.50074906938845232        0.00000000    
   0.0000000000000000       0.50366832818485308        0.00000000    
   0.0000000000000000       0.56984739532099526        0.00000000    
  -7.5266391121477164E-002  0.56668086118106009        0.00000000    
 -0.14985064430880460       0.55676784973510407        0.00000000    
 -0.22295964125171541       0.54049998460054682        0.00000000    
 -0.29399261066739246       0.51744832725775347        0.00000000    
 -0.36201514147569436       0.48800164586989131        0.00000000    
 -0.42648279807628031       0.45174875928890673        0.00000000    
 -0.48629369039978843       0.40912021643064489        0.00000000    
 -0.54094503081085976       0.35978674647255648        0.00000000    
 -0.58915415164632179       0.30429220845665955        0.00000000    
 -0.63046578672568265       0.24248732601998529        0.00000000    
 -0.66343142884616624       0.17512530540492988        0.00000000    
 -0.68768591135676793       0.10236505086338091        0.00000000    
 -0.70168024071344082        2.5276189125163422E-002   0.00000000    
 -0.70523797291731483       -5.5535726101800284E-002   0.00000000    
 -0.69684853455227824      -0.13860019831346482        0.00000000    