 <VTKFile type="UnstructuredGrid" version="0.1" byte_order="BigEndian">
 <UnstructuredGrid>
 <Piece NumberOfPoints="        2601 " NumberOfCells="        2500 ">
 <PointData Scalars="scalars">
 <DataArray type="Float32" NumberOfComponents="3" Name="Velocity" Format="ascii">
   0.0000000000000000        0.0000000000000000        0.00000000    
  -3.8928410095994466E-002   0.0000000000000000        0.00000000    
  -7.7297082864461644E-002   0.0000000000000000        0.00000000    
 -0.11453804780515739        0.0000000000000000        0.00000000    
 -0.15012366291232468        0.0000000000000000        0.00000000    
 -0.18350082359268730        0.0000000000000000        0.00000000    
 -0.21419967028343251        0.0000000000000000        0.00000000    
 -0.24170534503207136        0.0000000000000000        0.00000000    
 -0.26563381904471034        0.0000000000000000        0.00000000    
 -0.28553265508430425        0.0000000000000000        0.00000000    
 -0.30113358511034150        0.0000000000000000        0.00000000    
 -0.31207111062785930        0.0000000000000000        0.00000000    
 -0.31822269485251592        0.0000000000000000        0.00000000    
 -0.31933299233346540        0.0000000000000000        0.00000000    
 -0.31545193228861240        0.0000000000000000        0.00000000    
 -0.30645342145631094        0.0000000000000000        0.00000000    
 -0.29257896147698603        0.0000000000000000        0.00000000    
 -0.27384311603356870        0.0000000000000000        0.00000000    
 -0.25068569270263596        0.0000000000000000        0.00000000    
 -0.22326202488024741        0.0000000000000000        0.00000000    
 -0.19220060205935408        0.0000000000000000        0.00000000    
 -0.15778371027253352        0.0000000000000000        0.00000000    
 -0.12080053832281215        0.0000000000000000        0.00000000    
  -8.1631868212644121E-002   0.0000000000000000        0.00000000    
  -4.1182163699316598E-002   0.0000000000000000        0.00000000    
   1.1053987978555382E-004   0.0000000000000000        0.00000000    
   4.1285235732420988E-002   0.0000000000000000        0.00000000    
   8.1896207566387200E-002   0.0000000000000000        0.00000000    
  0.12099115510148514        0.0000000000000000        0.00000000    
  0.15816821718380192        0.0000000000000000        0.00000000    
  0.19254745142472132        0.0000000000000000        0.00000000    
  0.22381737146086067        0.0000000000000000        0.00000000    
  0.25122474322366717        0.0000000000000000        0.00000000    
  0.27458390664212956        0.0000000000000000        0.00000000    
  0.29330771064322297        0.0000000000000000        0.00000000    
  0.30735687824544916        0.0000000000000000        0.00000000    
  0.31633208738082097        0.0000000000000000        0.00000000    
  0.32034514501162292        0.0000000000000000        0.00000000    
  0.31918917428277654        0.0000000000000000        0.00000000    
  0.31311763858832736        0.0000000000000000        0.00000000    
  0.30210656222964777        0.0000000000000000        0.00000000    
  0.28653107933227201        0.0000000000000000        0.00000000    
  0.26653071390269850        0.0000000000000000        0.00000000    
  0.24257597935954078        0.0000000000000000        0.00000000    
  0.21494505690269253        0.0000000000000000        0.00000000    
  0.18417511438751921        0.0000000000000000        0.00000000    
  0.15065631205515467        0.0000000000000000        0.00000000    
  0.11496407636508041        0.0000000000000000        0.00000000    
   7.7574315212018199E-002   0.0000000000000000        0.00000000    
   3.9074038267217337E-002   0.0000000000000000        0.00000000    
   0.0000000000000000        0.0000000000000000        0.00000000    
   0.0000000000000000        3.9139743735187964E-002   0.00000000    
  -3.9066734479275493E-002   3.8855400840799179E-002   0.00000000    
  -7.7565744792456176E-002   3.8012282241521540E-002   0.00000000    
 -0.11494912288195168        3.6612060789430967E-002   0.00000000    
 -0.15065247619533723        3.4676907631750520E-002   0.00000000    
 -0.18417221459296418        3.2219991447043690E-002   0.00000000    
 -0.21497024507407669        2.9276885725399025E-002   0.00000000    
 -0.24261407105631017        2.5872615006319870E-002   0.00000000    
 -0.26661557587675139        2.2057363827303039E-002   0.00000000    
 -0.28664253507630033        1.7868431412727006E-002   0.00000000    
 -0.30228130745018877        1.3371270987700766E-002   0.00000000    
 -0.31333042113233250        8.6153682128858530E-003   0.00000000    
 -0.31947501870896211        3.6808135888642102E-003   0.00000000    
 -0.32067358752269065       -1.3719472932255089E-003   0.00000000    
 -0.31673190313461663       -6.4507971392726354E-003   0.00000000    
 -0.30779239587074719       -1.1487220955905920E-002   0.00000000    
 -0.29379754905196326       -1.6382085841805206E-002   0.00000000    
 -0.27508771047098063       -2.1063598181574973E-002   0.00000000    
 -0.25174858434401931       -2.5432951275947819E-002   0.00000000    
 -0.22431775596673098       -2.9421544922686498E-002   0.00000000    
 -0.19301775621142561       -3.2939877653161857E-002   0.00000000    
 -0.15856481317815138       -3.5929957165873355E-002   0.00000000    
 -0.12129710760096289       -3.8320920360701095E-002   0.00000000    
  -8.2072297301224381E-002  -4.0072560048134545E-002   0.00000000    
  -4.1308731635707675E-002  -4.1140710130382979E-002   0.00000000    
   4.7786316021842260E-005  -4.1508511399372873E-002   0.00000000    
   4.1545306729233622E-002  -4.1163704866149148E-002   0.00000000    
   8.2213554067631048E-002  -4.0115514305140265E-002   0.00000000    
  0.12161899582986876       -3.8384874991865083E-002   0.00000000    
  0.15883312242472170       -3.6006313684238837E-002   0.00000000    
  0.19349127989605361       -3.3031078027670434E-002   0.00000000    
  0.22476721640690794       -2.9514778518271220E-002   0.00000000    
  0.25240720734302186       -2.5532584180288916E-002   0.00000000    
  0.27573500626259101       -2.1154378156710646E-002   0.00000000    
  0.29463629182866408       -1.6470711410071885E-002   0.00000000    
  0.30861554092786753       -1.1557705290350849E-002   0.00000000    
  0.31771029262479272       -6.5122555415332859E-003   0.00000000    
  0.32161844060821021       -1.4089500717089603E-003   0.00000000    
  0.32052634245624378        3.6570189529678662E-003   0.00000000    
  0.31432194494827959        8.6189142503890898E-003   0.00000000    
  0.30332478113836620        1.3389325918686655E-002   0.00000000    
  0.28759735241580392        1.7913585702158268E-002   0.00000000    
  0.26756829972258989        2.2115832421151629E-002   0.00000000    
  0.24345165583294703        2.5955546012516307E-002   0.00000000    
  0.21575694435465295        2.9370087923190073E-002   0.00000000    
  0.18482334924175492        3.2333449705707278E-002   0.00000000    
  0.15121231311130037        3.4796388757718892E-002   0.00000000    
  0.11536143165882788        3.6746728385611646E-002   0.00000000    
   7.7856446528558471E-002   3.8148017898370884E-002   0.00000000    
   3.9207817503133825E-002   3.9000888072594206E-002   0.00000000    
   0.0000000000000000        3.9280967698452289E-002   0.00000000    
   0.0000000000000000        7.8549219770394474E-002   0.00000000    
  -3.9473828059435584E-002   7.7986487344968297E-002   0.00000000    
  -7.8383856458221338E-002   7.6290234450116554E-002   0.00000000    
 -0.11615839863661140        7.3492028849253252E-002   0.00000000    
 -0.15226466914610418        6.9606563395735982E-002   0.00000000    
 -0.18614545433963581        6.4690859274617221E-002   0.00000000    
 -0.21732415690281029        5.8782750943171203E-002   0.00000000    
 -0.24528088156555641        5.1967300433799254E-002   0.00000000    
 -0.26962318197715590        4.4306483633048295E-002   0.00000000    
 -0.28989250533716726        3.5915594166690330E-002   0.00000000    
 -0.30581098880913132        2.6881364080893561E-002   0.00000000    
 -0.31700629994031826        1.7349699933054446E-002   0.00000000    
 -0.32334628442313185        7.4310639295544377E-003   0.00000000    
 -0.32456893781774665       -2.7009754256505408E-003   0.00000000    
 -0.32071626024402822       -1.2916130967122191E-002   0.00000000    
 -0.31165698299500644       -2.3020671641123504E-002   0.00000000    
 -0.29762834487416384       -3.2872120094605627E-002   0.00000000    
 -0.27864267086605909       -4.2269076518123568E-002   0.00000000    
 -0.25514095256245684       -5.1068317368277452E-002   0.00000000    
 -0.22728042995291411       -5.9077529817519965E-002   0.00000000    
 -0.19569727832969300       -6.6167044135108183E-002   0.00000000    
 -0.16068039087750224       -7.2172621169777712E-002   0.00000000    
 -0.12303304020001714       -7.6993312609680120E-002   0.00000000    
  -8.3146916249709338E-002  -8.0511102049622030E-002   0.00000000    
  -4.1945546413183779E-002  -8.2667103629123218E-002   0.00000000    
   1.1924191711333413E-004  -8.3403424183094640E-002   0.00000000    
   4.2064920190109351E-002  -8.2711990766815402E-002   0.00000000    
   8.3431288798382935E-002  -8.0601844351575302E-002   0.00000000    
  0.12324513331271061       -7.7117831220190586E-002   0.00000000    
  0.16109187827325469       -7.2334229011715850E-002   0.00000000    
  0.19607414931114628       -6.6343591207646241E-002   0.00000000    
  0.22787161776775949       -5.9275670306123754E-002   0.00000000    
  0.25571911172549405       -5.1259177284566665E-002   0.00000000    
  0.27942721906961038       -4.2463691316417015E-002   0.00000000    
  0.29840310502455941       -3.3038569769738686E-002   0.00000000    
  0.31260891887539854       -2.3174909880947083E-002   0.00000000    
  0.32164541437854915       -1.3026298149447708E-002   0.00000000    
  0.32563007053016424       -2.7877115989554833E-003   0.00000000    
  0.32436042816472233        7.3975209990907983E-003   0.00000000    
  0.31809829916125343        1.7344938715675003E-002   0.00000000    
  0.30682664142818356        2.6932122997744671E-002   0.00000000    
  0.29092990256311430        3.5994956210820710E-002   0.00000000    
  0.27055532089183326        4.4438096278229096E-002   0.00000000    
  0.24618226631040632        5.2122980626718371E-002   0.00000000    
  0.21809613416271353        5.8983496936097148E-002   0.00000000    
  0.18684161649282777        6.4908153475919939E-002   0.00000000    
  0.15281492196072402        6.9859415651059367E-002   0.00000000    
  0.11659740915696873        7.3752095748965407E-002   0.00000000    
   7.8669810769881388E-002   7.6575234053237878E-002   0.00000000    
   3.9623749180532818E-002   7.8268362533098795E-002   0.00000000    
   0.0000000000000000        7.8845059922345764E-002   0.00000000    
   0.0000000000000000       0.11850989456969671        0.00000000    
  -4.0153541632554052E-002  0.11765318223840097        0.00000000    
  -7.9732008567931237E-002  0.11511203489136992        0.00000000    
 -0.11817866237803122       0.11089142439745672        0.00000000    
 -0.15492167322434183       0.10505644920363813        0.00000000    
 -0.18944579916535734        9.7645884602447580E-002   0.00000000    
 -0.22120406147622157        8.8764690489464906E-002   0.00000000    
 -0.24974880498954791        7.8486829064976379E-002   0.00000000    
 -0.27458081934459166        6.6961269768389300E-002   0.00000000    
 -0.29534957035252324        5.4298882400895761E-002   0.00000000    
 -0.31162828095200723        4.0695269917809834E-002   0.00000000    
 -0.32319566854948634        2.6298492826602016E-002   0.00000000    
 -0.32972295514163819        1.1349542110456745E-002   0.00000000    
 -0.33115025712415525       -3.9694982274431244E-003   0.00000000    
 -0.32727092044184819       -1.9379622422043878E-002   0.00000000    
 -0.31821429937763496       -3.4673078497296360E-002   0.00000000    
 -0.30391483966723187       -4.9547811070520996E-002   0.00000000    
 -0.28470909795500854       -6.3784801260254848E-002   0.00000000    
 -0.26068197830775919       -7.7081430577970816E-002   0.00000000    
 -0.23237962996589517       -8.9227287556835705E-002   0.00000000    
 -0.20003295488832096       -9.9947113097664395E-002   0.00000000    
 -0.16438020310607332      -0.10906219143917389        0.00000000    
 -0.12577735364096879      -0.11635394248402423        0.00000000    
  -8.5116020749512036E-002 -0.12169792901449873        0.00000000    
  -4.2839939663179546E-002 -0.12495772758829733        0.00000000    
   6.3311631333694678E-005 -0.12608083984616214        0.00000000    
   4.3112578506828390E-002 -0.12502952025343961        0.00000000    
   8.5293882318357675E-002 -0.12183198728219360        0.00000000    
  0.12614557586927211      -0.11655322635599001        0.00000000    
  0.16469978838848451      -0.10929979135315436        0.00000000    
  0.20056966900947770      -0.10023018052620990        0.00000000    
  0.23289907492178746       -8.9515955354037405E-002   0.00000000    
  0.26142149770379430       -7.7388808977422632E-002   0.00000000    
  0.28544311848505549       -6.4063787746595491E-002   0.00000000    
  0.30484757316863037       -4.9818813978994729E-002   0.00000000    
  0.31913425346634616       -3.4887159818032192E-002   0.00000000    
  0.32834842404928982       -1.9564714299224784E-002   0.00000000    
  0.33219325590651999       -4.0787834559619703E-003   0.00000000    
  0.33086988560035607        1.1281605527098837E-002   0.00000000    
  0.32427841587345629        2.6314452919925610E-002   0.00000000    
  0.31275671830802454        4.0755964091573220E-002   0.00000000    
  0.29638257587362310        5.4441996418165307E-002   0.00000000    
  0.27560324679101100        6.7144966824550761E-002   0.00000000    
  0.25064805112565891        7.8744360328678167E-002   0.00000000    
  0.22204305259707957        8.9053247910388975E-002   0.00000000    
  0.19014076336287514        9.7995209407011244E-002   0.00000000    
  0.15551597440536505       0.10542384320977555        0.00000000    
  0.11861697260796568       0.11130418279248115        0.00000000    
   8.0039736854692831E-002  0.11552798115049498        0.00000000    
   4.0303220272388404E-002  0.11809819360835121        0.00000000    
   0.0000000000000000       0.11894219830064896        0.00000000    
   0.0000000000000000       0.15927201021593429        0.00000000    
  -4.1094252294058942E-002  0.15813886051937998        0.00000000    
  -8.1613428698271581E-002  0.15472399995089603        0.00000000    
 -0.12097562441032732       0.14908830886037885        0.00000000    
 -0.15863335989210417       0.14126031107002790        0.00000000    
 -0.19401789221952606       0.13135068100448016        0.00000000    
 -0.22663281347341410       0.11943307765371274        0.00000000    
 -0.25594363703226153       0.10567400897258673        0.00000000    
 -0.28153258701132522        9.0195054196709062E-002   0.00000000    
 -0.30292288590524752        7.3224147873824627E-002   0.00000000    
 -0.31980724279120309        5.4933071932424853E-002   0.00000000    
 -0.33179248029932029        3.5613315916703102E-002   0.00000000    
 -0.33871640962438093        1.5485934939936443E-002   0.00000000    
 -0.34029627261763773       -5.0987260822841643E-003   0.00000000    
 -0.33654875399644518       -2.5877249868092263E-002   0.00000000    
 -0.32732600719524135       -4.6454818918030785E-002   0.00000000    
 -0.31285096049770172       -6.6540577054904418E-002   0.00000000    
 -0.29312816795408009       -8.5720569533282928E-002   0.00000000    
 -0.26860109637118951      -0.10369985353207556        0.00000000    
 -0.23943197089553361      -0.12008033842198276        0.00000000    
 -0.20627977198829237      -0.13459293621418061        0.00000000    
 -0.16945306895001605      -0.14689582314503938        0.00000000    
 -0.12979812649737646      -0.15677810269264716        0.00000000    
  -8.7739911488027761E-002 -0.16399331670862105        0.00000000    
  -4.4260726955357543E-002 -0.16841760550986368        0.00000000    
   1.4509828317147905E-004 -0.16993003845961324        0.00000000    
   4.4428476323829916E-002 -0.16851296655281556        0.00000000    
   8.8084409852606876E-002 -0.16418577832508718        0.00000000    
  0.13007512264990864      -0.15704184165802190        0.00000000    
  0.16994678673069019      -0.14723705265302101        0.00000000    
  0.20674860499088110      -0.13496461810431787        0.00000000    
  0.24013324019099180      -0.12049555889014978        0.00000000    
  0.26929953784632671      -0.10409792587556724        0.00000000    
  0.29404713615387806       -8.6123889938917106E-002   0.00000000    
  0.31376687845921325       -6.6882908772662689E-002   0.00000000    
  0.32842616494601018       -4.6769031810346952E-002   0.00000000    
  0.33762728089871430       -2.6098128839836292E-002   0.00000000    
  0.34150602247193057       -5.2689423470506213E-003   0.00000000    
  0.33987463102068360        1.5426526178090660E-002   0.00000000    
  0.33302120010178998        3.5614432913717235E-002   0.00000000    
  0.32095068964164453        5.5048192125597653E-002   0.00000000    
  0.30407635070719280        7.3398249752249595E-002   0.00000000    
  0.28256928583241492        9.0475107449821984E-002   0.00000000    
  0.25693577177390636       0.10600292942680588        0.00000000    
  0.22748301526050810       0.11985243385591585        0.00000000    
  0.19477809712823796       0.13180323082779297        0.00000000    
  0.15923504871634825       0.14178365915977126        0.00000000    
  0.12145242803436558       0.14962598932200624        0.00000000    
   8.1924754588556414E-002  0.15531108382112277        0.00000000    
   4.1256632124626311E-002  0.15871972998440609        0.00000000    
   0.0000000000000000       0.15988051432236886        0.00000000    
   0.0000000000000000       0.20111935923947069        0.00000000    
  -4.2294417317927935E-002  0.19968018110860464        0.00000000    
  -8.4000959670223169E-002  0.19540839811855121        0.00000000    
 -0.12454693891307669       0.18831208564880805        0.00000000    
 -0.16334743925790307       0.17849477010817436        0.00000000    
 -0.19986512194675857       0.16601843698418220        0.00000000    
 -0.23353661746201526       0.15105173844273515        0.00000000    
 -0.26388434007525519       0.13371389435760958        0.00000000    
 -0.29038758969987105       0.11424736841456387        0.00000000    
 -0.31265852260008009        9.2833065452432070E-002   0.00000000    
 -0.33024389513222024        6.9793883770745843E-002   0.00000000    
 -0.34288094771654515        4.5374794173508579E-002   0.00000000    
 -0.35021192163084736        1.9979359920983066E-002   0.00000000    
 -0.35213737138506851       -6.0868383128398883E-003   0.00000000    
 -0.34842387752767651       -3.2350150117947195E-002   0.00000000    
 -0.33917141477098317       -5.8457128222763222E-002   0.00000000    
 -0.32429612496660293       -8.3888604254197779E-002   0.00000000    
 -0.30412418970735378      -0.10826727013329224        0.00000000    
 -0.27873698471933739      -0.13106742950531775        0.00000000    
 -0.24869632025903324      -0.15192255238091909        0.00000000    
 -0.21424885870723384      -0.17035038271681874        0.00000000    
 -0.17617736510226858      -0.18603657328169937        0.00000000    
 -0.13487380324646983      -0.19859585686709474        0.00000000    
  -9.1300151218734638E-002 -0.20780742956720813        0.00000000    
  -4.5952679205190750E-002 -0.21343014920023687        0.00000000    
   9.3676111650742555E-005 -0.21536967532051512        0.00000000    
   4.6296711159371055E-002 -0.21355974278305370        0.00000000    
   9.1550982065732728E-002 -0.20804920652590767        0.00000000    
  0.13533597300709141      -0.19895411719857689        0.00000000    
  0.17660197964038254      -0.18646244782253552        0.00000000    
  0.21491605088675034      -0.17085511244397050        0.00000000    
  0.24936094052797020      -0.15243458938795840        0.00000000    
  0.27964440243098271      -0.13160865493855126        0.00000000    
  0.30503814224486814      -0.10875449899368912        0.00000000    
  0.32542310540183444       -8.4357005182422645E-002   0.00000000    
  0.34029073224470047       -5.8821848726805952E-002   0.00000000    
  0.34970418196525871       -3.2659877598610082E-002   0.00000000    
  0.35338011596238678       -6.2618691554555484E-003   0.00000000    
  0.35155191778888112        1.9879042609576136E-002   0.00000000    
  0.34414677617207629        4.5420489020782565E-002   0.00000000    
  0.33154142375225193        6.9917998897160188E-002   0.00000000    
  0.31384617594892827        9.3098029720972961E-002   0.00000000    
  0.29154673505366080       0.11458183325015714        0.00000000    
  0.26490386617684308       0.13417258656394360        0.00000000    
  0.23447682374577544       0.15156257566263148        0.00000000    
  0.20064456807317674       0.16663026282771237        0.00000000    
  0.16400773850772896       0.17913650513696447        0.00000000    
  0.12503492737380301       0.18902857516209626        0.00000000    
   8.4341065264633086E-002  0.19613003353618380        0.00000000    
   4.2460441537183577E-002  0.20044952646170006        0.00000000    
   0.0000000000000000       0.20186779150745804        0.00000000    
   0.0000000000000000       0.24427447458363680        0.00000000    
  -4.3737928700012849E-002  0.24255741178292115        0.00000000    
  -8.6885112204084861E-002  0.23738489330163742        0.00000000    
 -0.12884580155645514       0.22884225906099517        0.00000000    
 -0.16905058634743009       0.21696988183331384        0.00000000    
 -0.20691426845794603       0.20192469005797667        0.00000000    
 -0.24190888436984478       0.18381159679810288        0.00000000    
 -0.27347748205544981       0.16287035630017291        0.00000000    
 -0.30115992301358097       0.13927659705722190        0.00000000    
 -0.32444956843526879       0.11336441513029742        0.00000000    
 -0.34298797797790925        8.5386316170583024E-002   0.00000000    
 -0.35634614464151460        5.5777581019791120E-002   0.00000000    
 -0.36430779895079329        2.4869201301624549E-002   0.00000000    
 -0.36655297198546449       -6.8060569068061879E-003   0.00000000    
 -0.36305082976507957       -3.8846567598028126E-002   0.00000000    
 -0.35362225364109168       -7.0641749625949019E-002   0.00000000    
 -0.33846091636430015      -0.10174060992810996        0.00000000    
 -0.31755468798158615      -0.13149342810424969        0.00000000    
 -0.29134725318642429      -0.15943591131317211        0.00000000    
 -0.26000646466143024      -0.18493552356153503        0.00000000    
 -0.22422830588988418      -0.20756303185494829        0.00000000    
 -0.18435350153666555      -0.22677022210512768        0.00000000    
 -0.14130250965705018      -0.24221676177431406        0.00000000    
  -9.5557602489550211E-002 -0.25350508385872972        0.00000000    
  -4.8204631272035871E-002 -0.26043293813491275        0.00000000    
   1.8731802628463656E-004 -0.26280519100456445        0.00000000    
   4.8451167125273809E-002 -0.26059111124083384        0.00000000    
   9.6002492785827898E-002 -0.25382343463858720        0.00000000    
  0.14168951160828899      -0.24265189884489405        0.00000000    
  0.18498903978228778      -0.22733020098695739        0.00000000    
  0.22485735985011288      -0.20816975058904943        0.00000000    
  0.26090044519154781      -0.18560792622881533        0.00000000    
  0.29225673412220521      -0.16007506892687301        0.00000000    
  0.31870877441690121      -0.13213386511699524        0.00000000    
  0.33962293992741288      -0.10227676772236732        0.00000000    
  0.35497889181028952       -7.1125664915355949E-002   0.00000000    
  0.36438615421537324       -3.9176773531794405E-002   0.00000000    
  0.36801566573872480       -7.0504187451570994E-003   0.00000000    
  0.36570923748228434        2.4802218632765067E-002   0.00000000    
  0.35780306028809089        5.5808631806573993E-002   0.00000000    
  0.34434287405000552        8.5595394772415054E-002   0.00000000    
  0.32579284138493175       0.11366591431252043        0.00000000    
  0.30236621136737057       0.13974001957413953        0.00000000    
  0.27461515108378770       0.16340832939921601        0.00000000    
  0.24288367949402506       0.18448534685043227        0.00000000    
  0.20777545294996244       0.20264797385589597        0.00000000    
  0.16973300652674250       0.21779807009921631        0.00000000    
  0.12938144898577836       0.22969137887454044        0.00000000    
   8.7235878920026003E-002  0.23830666199994335        0.00000000    
   4.3919575935741251E-002  0.24346982470997047        0.00000000    
   0.0000000000000000       0.24522751073290178        0.00000000    
   0.0000000000000000       0.28901018233266557        0.00000000    
  -4.5415341055918643E-002  0.28697497379062809        0.00000000    
  -9.0228519668971940E-002  0.28092769341127399        0.00000000    
 -0.13384738477774621       0.27087901341389187        0.00000000    
 -0.17567204067478437       0.25696256816806617        0.00000000    
 -0.21513525044205989       0.23925889560298225        0.00000000    
 -0.25165273005452404       0.21798948677652308        0.00000000    
 -0.28470321518721203       0.19331154914257700        0.00000000    
 -0.31373575196063036       0.16555038194487218        0.00000000    
 -0.33830498938981912       0.13494951309660097        0.00000000    
 -0.35791768567632404       0.10195232403139488        0.00000000    
 -0.37224420969620053        6.6896263846057263E-002   0.00000000    
 -0.38088052604673350        3.0348489132635843E-002   0.00000000    
 -0.38366048404531650       -7.2602137004840897E-003   0.00000000    
 -0.38030558929946140       -4.5249447773588358E-002   0.00000000    
 -0.37086308368555898       -8.3109951183761674E-002   0.00000000    
 -0.35521570852706191      -0.12008112080899729        0.00000000    
 -0.33366639271979820      -0.15560846140844006        0.00000000    
 -0.30628592142105027      -0.18890878410665632        0.00000000    
 -0.27365538787218374      -0.21943397283669486        0.00000000    
 -0.23604221448067672      -0.24645591474688724        0.00000000    
 -0.19429700113385032      -0.26949735690777604        0.00000000    
 -0.14886647536839095      -0.28797114462098733        0.00000000    
 -0.10082469622220681      -0.30153738732012508        0.00000000    
  -5.0751316641094488E-002 -0.30982698547650567        0.00000000    
   1.3737899612702322E-004 -0.31269178859282953        0.00000000    
   5.1200530412817073E-002 -0.31003151417263219        0.00000000    
  0.10118452185646808      -0.30191834880533297        0.00000000    
  0.14947336785772980      -0.28853284950618635        0.00000000    
  0.19488633189701884      -0.27016174253340619        0.00000000    
  0.23691670273804610      -0.24723689995560977        0.00000000    
  0.27455229525487684      -0.22021945471517371        0.00000000    
  0.30746190796958894      -0.18972944208979811        0.00000000    
  0.33486769760158525      -0.15633732187569527        0.00000000    
  0.35665052009381432      -0.12077029897000399        0.00000000    
  0.37229614095360858       -8.3633706405674024E-002   0.00000000    
  0.38190127116972750       -4.5681124665890430E-002   0.00000000    
  0.38521076723019404       -7.4850751905743279E-003   0.00000000    
  0.38251358241532130        3.0240488146724042E-002   0.00000000    
  0.37378481674883585        6.7005305157136597E-002   0.00000000    
  0.35946514934502233       0.10217857506146522        0.00000000    
  0.33971866298255232       0.13537925305435483        0.00000000    
  0.31509167332474564       0.16608030050590747        0.00000000    
  0.28589412475005788       0.19401665732852591        0.00000000    
  0.25273509698040819       0.21876751827931662        0.00000000    
  0.21603244892477053       0.24017667702896311        0.00000000    
  0.17642320388902535       0.25792105838446233        0.00000000    
  0.13440348547129136       0.27193966654967211        0.00000000    
   9.0612616167598137E-002  0.28199481369418378        0.00000000    
   4.5603578767390081E-002  0.28810701340132006        0.00000000    
   0.0000000000000000       0.29011347674519478        0.00000000    
   0.0000000000000000       0.33551060215075379        0.00000000    
  -4.7304333638996290E-002  0.33319422866793430        0.00000000    
  -9.4002820192194622E-002  0.32622010370137877        0.00000000    
 -0.13948728783267703       0.31468993587284499        0.00000000    
 -0.18316335031924386       0.29865236409455231        0.00000000    
 -0.22442890489590878       0.27829786401956602        0.00000000    
 -0.26271532354219468       0.25375441662118792        0.00000000    
 -0.29743850879093309       0.22532028967781031        0.00000000    
 -0.32807913829439139       0.19321480768966101        0.00000000    
 -0.35409025903353997       0.15786544551798470        0.00000000    
 -0.37503761513511369       0.11959644400185625        0.00000000    
 -0.39044000684531965        7.8981059602907314E-002   0.00000000    
 -0.39999675530457163        3.6456758189923055E-002   0.00000000    
 -0.40333022039105720       -7.2550596760405017E-003   0.00000000    
 -0.40033103782387591       -5.1608679106176177E-002   0.00000000    
 -0.39076819016999903       -9.5756073122805374E-002   0.00000000    