 <VTKFile type="UnstructuredGrid" version="0.1" byte_order="BigEndian">
 <UnstructuredGrid>
 <Piece NumberOfPoints="        2601 " NumberOfCells="        2500 ">
 <PointData Scalars="scalars">
 <DataArray type="Float32" NumberOfComponents="3" Name="Velocity" Format="ascii">
   0.0000000000000000        0.0000000000000000        0.00000000    
  -2.1457440373513801E-002   0.0000000000000000        0.00000000    
  -4.2564551316878731E-002   0.0000000000000000        0.00000000    
  -6.3093656715894508E-002   0.0000000000000000        0.00000000    
  -8.2589385691489658E-002   0.0000000000000000        0.00000000    
 -0.10095762536844578        0.0000000000000000        0.00000000    
 -0.11766217257282545        0.0000000000000000        0.00000000    
 -0.13274677419264919        0.0000000000000000        0.00000000    
 -0.14562470711345857        0.0000000000000000        0.00000000    
 -0.15647538046833701        0.0000000000000000        0.00000000    
 -0.16469689255094550        0.0000000000000000        0.00000000    
 -0.17059567541328641        0.0000000000000000        0.00000000    
 -0.17359323122424061        0.0000000000000000        0.00000000    
 -0.17410791151144081        0.0000000000000000        0.00000000    
 -0.17162392246324540        0.0000000000000000        0.00000000    
 -0.16664996788710698        0.0000000000000000        0.00000000    
 -0.15876985058768667        0.0000000000000000        0.00000000    
 -0.14855480850602135        0.0000000000000000        0.00000000    
 -0.13571932015933422        0.0000000000000000        0.00000000    
 -0.12086376978819503        0.0000000000000000        0.00000000    
 -0.10385535448229469        0.0000000000000000        0.00000000    
  -8.5286037379230836E-002   0.0000000000000000        0.00000000    
  -6.5186250133818777E-002   0.0000000000000000        0.00000000    
  -4.4100021502455490E-002   0.0000000000000000        0.00000000    
  -2.2218722971999411E-002   0.0000000000000000        0.00000000    
  -8.5135414456215639E-009   0.0000000000000000        0.00000000    
   2.2218705963926572E-002   0.0000000000000000        0.00000000    
   4.4100004649890258E-002   0.0000000000000000        0.00000000    
   6.5186233450900202E-002   0.0000000000000000        0.00000000    
   8.5286020950627525E-002   0.0000000000000000        0.00000000    
  0.10385533839224030        0.0000000000000000        0.00000000    
  0.12086375419506194        0.0000000000000000        0.00000000    
  0.13571930510544572        0.0000000000000000        0.00000000    
  0.14855479403282046        0.0000000000000000        0.00000000    
  0.15876983675497935        0.0000000000000000        0.00000000    
  0.16664995471585797        0.0000000000000000        0.00000000    
  0.17162391010858816        0.0000000000000000        0.00000000    
  0.17410789982696029        0.0000000000000000        0.00000000    
  0.17359322034546101        0.0000000000000000        0.00000000    
  0.17059566546318874        0.0000000000000000        0.00000000    
  0.16469688345298231        0.0000000000000000        0.00000000    
  0.15647537218616400        0.0000000000000000        0.00000000    
  0.14562469969750547        0.0000000000000000        0.00000000    
  0.13274676767281191        0.0000000000000000        0.00000000    
  0.11766216698375900        0.0000000000000000        0.00000000    
  0.10095762072205976        0.0000000000000000        0.00000000    
   8.2589382029431765E-002   0.0000000000000000        0.00000000    
   6.3093654025988488E-002   0.0000000000000000        0.00000000    
   4.2564549532050008E-002   0.0000000000000000        0.00000000    
   2.1457439487606238E-002   0.0000000000000000        0.00000000    
   0.0000000000000000        0.0000000000000000        0.00000000    
   0.0000000000000000        2.1567336112494527E-002   0.00000000    
  -2.1531204774314309E-002   2.1421309037534236E-002   0.00000000    
  -4.2770864485922926E-002   2.0925461619639714E-002   0.00000000    
  -6.3311897406518186E-002   2.0144676702172185E-002   0.00000000    
  -8.2992510608763448E-002   1.9031665477868224E-002   0.00000000    
 -0.10131102173885065        1.7655085331375959E-002   0.00000000    
 -0.11824292004731790        1.5981360183670645E-002   0.00000000    
 -0.13321932726214955        1.4079648653185561E-002   0.00000000    
 -0.14635399515964034        1.1932952167313781E-002   0.00000000    
 -0.15704398080054127        9.6077068306662863E-003   0.00000000    
 -0.16553582809114553        7.1056525447451722E-003   0.00000000    
 -0.17122997979506649        4.4872820237170739E-003   0.00000000    
 -0.17449385774221260        1.7741517365815758E-003   0.00000000    
 -0.17477089666475903       -9.8243252463488533E-004   0.00000000    
 -0.17253099563122390       -3.7414575548977516E-003   0.00000000    
 -0.16729947009319332       -6.4640225570717262E-003   0.00000000    
 -0.15962386572133994       -9.0916991120044196E-003   0.00000000    
 -0.14914619265167958       -1.1601016037122111E-002   0.00000000    
 -0.13646077247828658       -1.3919892480760839E-002   0.00000000    
 -0.12135361150947892       -1.6042818856987402E-002   0.00000000    
 -0.10442988890930252       -1.7889319046892293E-002   0.00000000    
  -8.5636410846381669E-002  -1.9473476116894359E-002   0.00000000    
  -6.5550051079942787E-002  -2.0712670892759563E-002   0.00000000    
  -4.4282733254202893E-002  -2.1640875562145917E-002   0.00000000    
  -2.2343287791419995E-002  -2.2179868428896053E-002   0.00000000    
  -8.5519069624930630E-009  -2.2382125266877596E-002   0.00000000    
   2.2343270746130718E-002  -2.2179868506430757E-002   0.00000000    
   4.4282716301410487E-002  -2.1640875732615587E-002   0.00000000    
   6.5550034341218560E-002  -2.0712671106004735E-002   0.00000000    
   8.5636394344587571E-002  -1.9473476394894811E-002   0.00000000    
  0.10442987271934839       -1.7889319419280694E-002   0.00000000    
  0.12135359573234616       -1.6042819394341656E-002   0.00000000    
  0.13646075730909207       -1.3919893090589412E-002   0.00000000    
  0.14914617813959399       -1.1601016665090055E-002   0.00000000    
  0.15962385187326483       -9.0916997885404742E-003   0.00000000    
  0.16729945698714122       -6.4640232840171667E-003   0.00000000    
  0.17253098315069673       -3.7414582700689434E-003   0.00000000    
  0.17477088497062704       -9.8243326603560457E-004   0.00000000    
  0.17449384681886512        1.7741509014968470E-003   0.00000000    
  0.17122996965303422        4.4872811488045625E-003   0.00000000    
  0.16553581885444751        7.1056516621890251E-003   0.00000000    
  0.15704397246833521        9.6077059929404549E-003   0.00000000    
  0.14635398767388558        1.1932951292368387E-002   0.00000000    
  0.13321932067076067        1.4079647737649208E-002   0.00000000    
  0.11824291440030794        1.5981359224057242E-002   0.00000000    
  0.10131101707555693        1.7655084364592708E-002   0.00000000    
   8.2992506945752179E-002   1.9031664460040863E-002   0.00000000    
   6.3311894697565096E-002   2.0144675793789747E-002   0.00000000    
   4.2770862674977699E-002   2.0925460724936944E-002   0.00000000    
   2.1531203865682649E-002   2.1421308131002233E-002   0.00000000    
   0.0000000000000000        2.1567335224487300E-002   0.00000000    
   0.0000000000000000        4.3342833751679292E-002   0.00000000    
  -2.1812620156394034E-002   4.2989636331249997E-002   0.00000000    
  -4.3270197671878161E-002   4.2054371555209566E-002   0.00000000    
  -6.4143682542062805E-002   4.0430284559573627E-002   0.00000000    
  -8.3969537339706274E-002   3.8252525622548952E-002   0.00000000    
 -0.10265540409492527        3.5438603074192006E-002   0.00000000    
 -0.11965352941313807        3.2127866069728568E-002   0.00000000    
 -0.13501230791831087        2.8268328489321832E-002   0.00000000    
 -0.14813042457937323        2.3997056891924759E-002   0.00000000    
 -0.15919461115390135        1.9297774323673494E-002   0.00000000    
 -0.16758601720970454        1.4298838400339582E-002   0.00000000    
 -0.17362087954021124        9.0231102047385481E-003   0.00000000    
 -0.17670245040058291        3.5837723652719111E-003   0.00000000    
 -0.17726116953098164       -1.9562950981922619E-003   0.00000000    
 -0.17476307543744918       -7.5055901062143658E-003   0.00000000    
 -0.16973096708150881       -1.2963523897538704E-002   0.00000000    
 -0.16173215027010746       -1.8266618952599189E-002   0.00000000    
 -0.15135351705731154       -2.3282402476796287E-002   0.00000000    
 -0.13829630779558311       -2.7981135474015852E-002   0.00000000    
 -0.12317740968845255       -3.2207634937483326E-002   0.00000000    
 -0.10585538337612581       -3.5970251876708027E-002   0.00000000    
  -8.6938524962683922E-002  -3.9102879761253762E-002   0.00000000    
  -6.6454091121004727E-002  -4.1654060854327796E-002   0.00000000    
  -4.4960981438970843E-002  -4.3459913106163310E-002   0.00000000    
  -2.2653075897696641E-002  -4.4608181886746277E-002   0.00000000    
  -8.6384197943884307E-009  -4.4950158305628457E-002   0.00000000    
   2.2653058651181002E-002  -4.4608182053129546E-002   0.00000000    
   4.4960964321873277E-002  -4.3459913409699229E-002   0.00000000    
   6.6454074151729922E-002  -4.1654061296397642E-002   0.00000000    
   8.6938508280974450E-002  -3.9102880334925164E-002   0.00000000    
  0.10585536707382674       -3.5970252644675765E-002   0.00000000    
  0.12317739380875174       -3.2207635914677894E-002   0.00000000    
  0.13829629235240362       -2.7981136688463523E-002   0.00000000    
  0.15135350224203944       -2.3282403785161550E-002   0.00000000    
  0.16173213620458968       -1.8266620362502713E-002   0.00000000    
  0.16973095366813004       -1.2963525285278856E-002   0.00000000    
  0.17476306278051887       -7.5055915425642390E-003   0.00000000    
  0.17726115765152817       -1.9562966822863105E-003   0.00000000    
  0.17670243933491958        3.5837707883059743E-003   0.00000000    
  0.17362086927274667        9.0231084921931961E-003   0.00000000    
  0.16758600773228927        1.4298836660032848E-002   0.00000000    
  0.15919460260252580        1.9297772513166649E-002   0.00000000    
  0.14813041701838195        2.3997055152924600E-002   0.00000000    
  0.13501230122347266        2.8268326677321296E-002   0.00000000    
  0.11965352363620819        3.2127864144292063E-002   0.00000000    
  0.10265539933423906        3.5438601073272000E-002   0.00000000    
   8.3969533571726054E-002   3.8252523645869813E-002   0.00000000    
   6.4143679728652994E-002   4.0430282701414612E-002   0.00000000    
   4.3270195824484596E-002   4.2054369746259271E-002   0.00000000    
   2.1812619224242484E-002   4.2989634521409921E-002   0.00000000    
   0.0000000000000000        4.3342831926196881E-002   0.00000000    
   0.0000000000000000        6.5413310878647421E-002   0.00000000    
  -2.2240460977074609E-002   6.4972240339934942E-002   0.00000000    
  -4.4183415931646729E-002   6.3472300018764083E-002   0.00000000    
  -6.5408961968139168E-002   6.1111387004881806E-002   0.00000000    
  -8.5755844012298119E-002   5.7744160021225101E-002   0.00000000    
 -0.10470261144884248        5.3579602869465746E-002   0.00000000    
 -0.12223131713065380        4.8513697276659634E-002   0.00000000    
 -0.13774673856985328        4.2756697228950334E-002   0.00000000    
 -0.15137475026083769        3.6254816506522548E-002   0.00000000    
 -0.16248048750119251        2.9209938526146364E-002   0.00000000    
 -0.17132776909448325        2.1625361849139199E-002   0.00000000    
 -0.17728127594036880        1.3684955934519110E-002   0.00000000    
 -0.18073048597096530        5.4527075286373043E-003   0.00000000    
 -0.18108170374835217       -2.9152933515844926E-003   0.00000000    
 -0.17883122542724503       -1.1295164265284367E-002   0.00000000    
 -0.17346891411419715       -1.9568369405269858E-002   0.00000000    
 -0.16557236849080573       -2.7557135877483558E-002   0.00000000    
 -0.15475310801103609       -3.5189779242291302E-002   0.00000000    
 -0.14163803468766542       -4.2246041291442646E-002   0.00000000    
 -0.12599067745835774       -4.8708984454309712E-002   0.00000000    
 -0.10844959464990721       -5.4332011478480956E-002   0.00000000    
  -8.8949433426904603E-002  -5.9158139793741633E-002   0.00000000    
  -6.8098892469389202E-002  -6.2933775618855811E-002   0.00000000    
  -4.6009191967796105E-002  -6.5763008523079897E-002   0.00000000    
  -2.3216626798985337E-002  -6.7405557177735012E-002   0.00000000    
  -8.7959365175108422E-009  -6.8022468274784365E-002   0.00000000    
   2.3216609216247946E-002  -6.7405557383577883E-002   0.00000000    
   4.6009174467441426E-002  -6.5763008998956901E-002   0.00000000    
   6.8098875199190403E-002  -6.2933776266563241E-002   0.00000000    
   8.8949416440479503E-002  -5.9158140733114754E-002   0.00000000    
  0.10844957804219842       -5.4332012638873578E-002   0.00000000    
  0.12599066131262052       -4.8708985923649251E-002   0.00000000    
  0.14163801906498696       -4.2246042973325404E-002   0.00000000    
  0.15475309291073425       -3.5189781233505482E-002   0.00000000    
  0.16557235400318271       -2.7557137966971339E-002   0.00000000    
  0.17346890044198224       -1.9568371580973049E-002   0.00000000    
  0.17883121259286011       -1.1295166507949865E-002   0.00000000    
  0.18108169165812693       -2.9152956509993803E-003   0.00000000    
  0.18073047462495964        5.4527051089825543E-003   0.00000000    
  0.17728126545025899        1.3684953410567923E-002   0.00000000    
  0.17132775949927434        2.1625359235288025E-002   0.00000000    
  0.16248047878809135        2.9209935781036495E-002   0.00000000    
  0.15137474246119556        3.6254813798282041E-002   0.00000000    
  0.13774673181598651        4.2756694474261704E-002   0.00000000    
  0.12223131135210319        4.8513694400686744E-002   0.00000000    
  0.10470260656828104        5.3579599904849257E-002   0.00000000    
   8.5755840121793700E-002   5.7744157025479380E-002   0.00000000    
   6.5408959075983347E-002   6.1111384212870594E-002   0.00000000    
   4.4183413962688135E-002   6.3472297254452512E-002   0.00000000    
   2.2240460007586463E-002   6.4972237570743663E-002   0.00000000    
   0.0000000000000000        6.5413308110876534E-002   0.00000000    
   0.0000000000000000        8.8109376604227616E-002   0.00000000    
  -2.2877039509749498E-002   8.7393675103354398E-002   0.00000000    
  -4.5385170666388253E-002   8.5501951368732745E-002   0.00000000    
  -6.7291591632299239E-002   8.2213702659490309E-002   0.00000000    
  -8.8108369419427554E-002   7.7805504200082615E-002   0.00000000    
 -0.10774881952784188        7.2105476237738914E-002   0.00000000    
 -0.12563039083509006        6.5398100899625985E-002   0.00000000    
 -0.14181583269101150        5.7573156903275309E-002   0.00000000    
 -0.15565958332864810        4.8910119162999657E-002   0.00000000    
 -0.16737074517821693        3.9371534961761961E-002   0.00000000    
 -0.17627878531132446        2.9219087142103334E-002   0.00000000    
 -0.18272976650991274        1.8495718688196858E-002   0.00000000    
 -0.18607100131538432        7.4323896132091625E-003   0.00000000    
 -0.18676965639932086       -3.8451025726656102E-003   0.00000000    
 -0.18423581365950217       -1.5149676102947925E-002   0.00000000    
 -0.17903513058878046       -2.6276851949209052E-002   0.00000000    
 -0.17068386875159888       -3.7096460791936944E-002   0.00000000    
 -0.15981662163806307       -4.7336961918976225E-002   0.00000000    
 -0.14609348463644103       -5.6937068937571417E-002   0.00000000    
 -0.13018177897966185       -6.5577019692100058E-002   0.00000000    
 -0.11191307215553402       -7.3273765871091509E-002   0.00000000    
  -9.1945726497229513E-002  -7.9683892280269480E-002   0.00000000    
  -7.0296910122209511E-002  -8.4907380462687754E-002   0.00000000    
  -4.7571222381207937E-002  -8.8604791919672451E-002   0.00000000    
  -2.3970090320900875E-002  -9.0957471008086724E-002   0.00000000    
  -9.0377417455367543E-009  -9.1657253728468724E-002   0.00000000    
   2.3970072306719693E-002  -9.0957471284367625E-002   0.00000000    
   4.7571204505553008E-002  -8.8604792546020258E-002   0.00000000    
   7.0296892445789599E-002  -8.4907381389315209E-002   0.00000000    
   9.1945709123699731E-002  -7.9683893527386584E-002   0.00000000    
  0.11191305515355109       -7.3273767474003271E-002   0.00000000    
  0.13018176239178822       -6.5577021595001339E-002   0.00000000    
  0.14609346852443103       -5.6937071184814850E-002   0.00000000    
  0.15981660617228563       -4.7336964513438884E-002   0.00000000    
  0.17068385401180924       -3.7096463616842983E-002   0.00000000    
  0.17903511652109552       -2.6276854877006907E-002   0.00000000    
  0.18423580027924155       -1.5149679118773018E-002   0.00000000    
  0.18676964385738642       -3.8451056814068768E-003   0.00000000    
  0.18607098967158778        7.4323863605232406E-003   0.00000000    
  0.18272975575294773        1.8495715254549513E-002   0.00000000    
  0.17627877546271775        2.9219083634688815E-002   0.00000000    
  0.16737073623142762        3.9371531326290503E-002   0.00000000    
  0.15565957537586406        4.8910115437656394E-002   0.00000000    
  0.14181582568820666        5.7573153169934679E-002   0.00000000    
  0.12563038481495098        6.5398097044323159E-002   0.00000000    
  0.10774881459806500        7.2105472264100981E-002   0.00000000    
   8.8108365476617073E-002   7.7805500236334854E-002   0.00000000    
   6.7291588615307221E-002   8.2213698911314359E-002   0.00000000    
   4.5385168672669896E-002   8.5501947614115004E-002   0.00000000    
   2.2877038495278230E-002   8.7393671345751656E-002   0.00000000    
   0.0000000000000000        8.8109372840908765E-002   0.00000000    
   0.0000000000000000       0.11139054649732470        0.00000000    
  -2.3656257683314096E-002  0.11064580240548931        0.00000000    
  -4.7003760547431168E-002  0.10810545808951978        0.00000000    
  -6.9597377386999837E-002  0.10411023374635346        0.00000000    
  -9.1277728072161959E-002   9.8406101587673753E-002   0.00000000    
 -0.11148382071282513        9.1351421601397712E-002   0.00000000    
 -0.13021166673546339        8.2761572868015373E-002   0.00000000    
 -0.14681276920870895        7.2996229266226856E-002   0.00000000    
 -0.16143806340437056        6.1956091635506139E-002   0.00000000    
 -0.17338754819142849        4.9986209128057270E-002   0.00000000    
 -0.18296039695351229        3.7085301873157568E-002   0.00000000    
 -0.18944772471152319        2.3567812915917349E-002   0.00000000    
 -0.19328397763750044        9.5377831190946345E-003   0.00000000    
 -0.19379850309331925       -4.7373155366202298E-003   0.00000000    
 -0.19154140601054481       -1.9048402959429809E-002   0.00000000    
 -0.18592854858313382       -3.3191665588685380E-002   0.00000000    
 -0.17759893567574259       -4.6862521894876732E-002   0.00000000    
 -0.16610001208552788       -5.9937071517613572E-002   0.00000000    
 -0.15212551439473398       -7.2034594029192781E-002   0.00000000    
 -0.13539139873982772       -8.3125315909992614E-002   0.00000000    
 -0.11660501567170607       -9.2780559543289925E-002   0.00000000    
  -9.5674978494800361E-002 -0.10107448144111193        0.00000000    
  -7.3275863074559994E-002 -0.10756472309494558        0.00000000    
  -4.9516925993834830E-002 -0.11243207410697435        0.00000000    
  -2.4991487913612106E-002 -0.11525675895915248        0.00000000    
  -9.2591149910861965E-009 -0.11631952571289468        0.00000000    
   2.4991469415302468E-002 -0.11525675931665602        0.00000000    
   4.9516907623263717E-002 -0.11243207491836421        0.00000000    
   7.3275844911041096E-002 -0.10756472424281825        0.00000000    
   9.5674960595079128E-002 -0.10107448303367181        0.00000000    
  0.11660499809599535       -9.2780561496316236E-002   0.00000000    
  0.13539138160032760       -8.3125318313099272E-002   0.00000000    
  0.15212549784185470       -7.2034596838715298E-002   0.00000000    
  0.16609999615623647       -5.9937074819617506E-002   0.00000000    
  0.17759892039845362       -4.6862525390231870E-002   0.00000000    
  0.18592853400448259       -3.3191669216776562E-002   0.00000000    
  0.19154139225301692       -1.9048406783509067E-002   0.00000000    
  0.19379849013641726       -4.7373194760594664E-003   0.00000000    
  0.19328396555438579        9.5377789251812756E-003   0.00000000    
  0.18944771360297552        2.3567808562099054E-002   0.00000000    
  0.18296038680125218        3.7085297421267899E-002   0.00000000    
  0.17338753904560236        4.9986204528809794E-002   0.00000000    
  0.16143805519299828        6.1956086945479723E-002   0.00000000    
  0.14681276203357482        7.2996224511351945E-002   0.00000000    
  0.13021166066966239        8.2761567942247843E-002   0.00000000    
  0.11148381565212073        9.1351416602765578E-002   0.00000000    
   9.1277723999619365E-002   9.8406096673791910E-002   0.00000000    
   6.9597374375910223E-002  0.10411022896104037        0.00000000    
   4.7003758502750896E-002  0.10810545338235616        0.00000000    
   2.3656256664303824E-002  0.11064579759551536        0.00000000    
   0.0000000000000000       0.11139054175289546        0.00000000    
   0.0000000000000000       0.13571719164503143        0.00000000    
  -2.4645536495794231E-002  0.13462095143904992        0.00000000    
  -4.8900025754004282E-002  0.13173230118044801        0.00000000    
  -7.2525688500385946E-002  0.12670267024353166        0.00000000    
  -9.4994349380897944E-002  0.11996267665833389        0.00000000    
 -0.11623016885751979       0.11123675865017604        0.00000000    
 -0.13559218223746733       0.10096609522398925        0.00000000    
 -0.15316844740279589        8.8969074550977953E-002   0.00000000    
 -0.16823814587871366        7.5678239024502561E-002   0.00000000    
 -0.18104900732796431        6.1024407977518340E-002   0.00000000    
 -0.19084158814050298        4.5412532600488019E-002   0.00000000    
 -0.19801301880327241        2.8899340611514619E-002   0.00000000    
 -0.20181336615739409        1.1842855705765687E-002   0.00000000    
 -0.20277252919316194       -5.5686996295581477E-003   0.00000000    
 -0.20020235884181656       -2.3044286298442764E-002   0.00000000    
 -0.19474183865985029       -4.0269159856903602E-002   0.00000000    
 -0.18581679383513414       -5.7039685356598036E-002   0.00000000    
 -0.17414379339239497       -7.2931832086699483E-002   0.00000000    
 -0.15930937371968310       -8.7848750821446650E-002   0.00000000    
 -0.14206805302748926      -0.10128659546269100        0.00000000    
 -0.12220261385875819      -0.11327110222528050        0.00000000    
 -0.10045852965914359      -0.12325806013349208        0.00000000    
  -7.6834167939876657E-002 -0.13140462153991184        0.00000000    
  -5.2014065324443803E-002 -0.13717121535601401        0.00000000    
  -2.6212297938446680E-002 -0.14084482317417490        0.00000000    
  -9.5684052766626560E-009 -0.14193522852025589        0.00000000    
   2.6212278864871142E-002 -0.14084482361483386        0.00000000    
   5.2014046342216194E-002 -0.13717121630333490        0.00000000    
   7.6834149185077583E-002 -0.13140462298633429        0.00000000    
  0.10045851121838198      -0.12325806200533766        0.00000000    
  0.12220259580056417      -0.11327110460559922        0.00000000    
  0.14206803544850277      -0.10128659835392356        0.00000000    
  0.15930935666258428       -8.7848754251351718E-002   0.00000000    
  0.17414377688209165       -7.2931835938704170E-002   0.00000000    
  0.18581677796032892       -5.7039689589453053E-002   0.00000000    
  0.19474182358713493       -4.0269164248222390E-002   0.00000000    
  0.20020234453985492       -2.3044290951171397E-002   0.00000000    
  0.20277251580486633       -5.5687044546398386E-003   0.00000000    
  0.20181335373067169        1.1842850562134188E-002   0.00000000    
  0.19801300726119483        2.8899335348202774E-002   0.00000000    
  0.19084157757640044        4.5412527123829254E-002   0.00000000    
  0.18104899776732647        6.1024402393141317E-002   0.00000000    
  0.16823813741072940        7.5678233292498329E-002   0.00000000    
  0.15316843995941390        8.8969068777240465E-002   0.00000000    
  0.13559217581260294       0.10096608918923364        0.00000000    
  0.11623016356972744       0.11123675261836335        0.00000000    
   9.4994345209360453E-002  0.11996267067321585        0.00000000    
   7.2525685359658768E-002  0.12670266443719175        0.00000000    
   4.8900023672138776E-002  0.13173229546904019        0.00000000    
   2.4645535426246541E-002  0.13462094559533225        0.00000000    
   0.0000000000000000       0.13571718584578782        0.00000000    
   0.0000000000000000       0.16090741674949394        0.00000000    
  -2.5769527861024686E-002  0.15984579069355878        0.00000000    
  -5.1215209522308125E-002  0.15620763284758191        0.00000000    
  -7.5855235910660929E-002  0.15049302771328799        0.00000000    
  -9.9535104266100238E-002  0.14232084842667456        0.00000000    
 -0.12163464838590433       0.13221395048041984        0.00000000    
 -0.14217293311646198       0.11988920150639334        0.00000000    
 -0.16042022649478885       0.10586952681439002        0.00000000    
 -0.17656710418956878        8.9994362933928318E-002   0.00000000    
 -0.18981271361227386        7.2764754942210824E-002   0.00000000    
 -0.20051125716096835        5.4163309999166416E-002   0.00000000    
 -0.20783837502900118        3.4647111745801949E-002   0.00000000    
 -0.21229806836275816        1.4355125261493342E-002   0.00000000    
 -0.21309733701732561       -6.3225374927870321E-003   0.00000000    
 -0.21086949556958554       -2.7088460232163724E-002   0.00000000    
 -0.20491134422247159       -4.7643657450100400E-002   0.00000000    
 -0.19595723433041606       -6.7544342478037270E-002   0.00000000    
 -0.18345034327732307       -8.6607066458931584E-002   0.00000000    
 -0.16818890466846093      -0.10426937472865175        0.00000000    
 -0.14981054539047839      -0.12048565152350398        0.00000000    
 -0.12913105732573638      -0.13461697339580195        0.00000000    
 -0.10601540005561241      -0.14677193043055412        0.00000000    
  -8.1242803080934373E-002 -0.15628770993465352        0.00000000    
  -5.4918070607743119E-002 -0.16343296204774491        0.00000000    
  -2.7725617705879741E-002 -0.16757729676816033        0.00000000    
  -9.9623257187712590E-009 -0.16914065103771805        0.00000000    
   2.7725597851646588E-002 -0.16757729734247251        0.00000000    
   5.4918050962478225E-002 -0.16343296316172851        0.00000000    
   8.1242783592101409E-002 -0.15628771159827362        0.00000000    
  0.10601538088249417      -0.14677193271495462        0.00000000    
  0.12913103863844971      -0.13461697623196486        0.00000000    
  0.14981052719929791      -0.12048565493420599        0.00000000    
  0.16818888698945983      -0.10426937867315453        0.00000000    
  0.18345032612638332       -8.6607070871195499E-002   0.00000000    
  0.19595721784659126       -6.7544347453246237E-002   0.00000000    
  0.20491132849874277       -4.7643662661250821E-002   0.00000000    
  0.21086948077342083       -2.7088465763378471E-002   0.00000000    
  0.21309732315741772       -6.3225432893054987E-003   0.00000000    
  0.21229805540047605        1.4355119230099678E-002   0.00000000    
  0.20783836307574774        3.4647105476578732E-002   0.00000000    
  0.20051124619360267        5.4163303564556148E-002   0.00000000    
  0.18981270365174721        7.2764748305481686E-002   0.00000000    
  0.17656709525314104        8.9994356137523851E-002   0.00000000    
  0.16042021871110110       0.10586951992771033        0.00000000    
  0.14217292653807548       0.11988919436076119        0.00000000    
  0.12163464291524492       0.13221394331468456        0.00000000    
   9.9535099923019441E-002  0.14232084133164566        0.00000000    
   7.5855232672263379E-002  0.15049302088136574        0.00000000    
   5.1215207340347776E-002  0.15620762604645752        0.00000000    
   2.5769526777183846E-002  0.15984578382912010        0.00000000    
   0.0000000000000000       0.16090740981758272        0.00000000    
   0.0000000000000000       0.18756418224160876        0.00000000    
  -2.7103360261986571E-002  0.18606191332659777        0.00000000    
  -5.3786916841013478E-002  0.18212074845699960        0.00000000    
  -7.9808740625461463E-002  0.17524176227880967        0.00000000    
 -0.10458544353988634       0.16602868513316707        0.00000000    
 -0.12805937328641637       0.15407958764239613        0.00000000    
 -0.14950718068120217       0.14000965647191371        0.00000000    
 -0.16905530202924002       0.12354448657736569        0.00000000    
 -0.18587460720563381       0.10528558604428212        0.00000000    
 -0.20026971818932487        8.5114252240381619E-002   0.00000000    
 -0.21135097719173165        6.3593615254254152E-002   0.00000000    
 -0.21958981268219438        4.0782759851336108E-002   0.00000000    
 -0.22409157102056909        1.7180928830248788E-002   0.00000000    
 -0.22547709428753487       -6.9635491378841272E-003   0.00000000    
 -0.22290984046358117       -3.1242543856602977E-002   0.00000000    
 -0.21713536942115613       -5.5222196213075163E-002   0.00000000    