 <VTKFile type="UnstructuredGrid" version="0.1" byte_order="BigEndian">
 <UnstructuredGrid>
 <Piece NumberOfPoints="        2601 " NumberOfCells="        2500 ">
 <PointData Scalars="scalars">
 <DataArray type="Float32" NumberOfComponents="3" Name="Velocity" Format="ascii">
   0.0000000000000000        0.0000000000000000        0.00000000    
 -0.14933905887425128        0.0000000000000000        0.00000000    
 -0.29835742584844688        0.0000000000000000        0.00000000    
 -0.44640101846775437        0.0000000000000000        0.00000000    
 -0.59333891214562628        0.0000000000000000        0.00000000    
 -0.73803373725548604        0.0000000000000000        0.00000000    
 -0.88037789028170832        0.0000000000000000        0.00000000    
  -1.0185699513849660        0.0000000000000000        0.00000000    
  -1.1523041287453457        0.0000000000000000        0.00000000    
  -1.2788867965401831        0.0000000000000000        0.00000000    
  -1.3975108339653342        0.0000000000000000        0.00000000    
  -1.5043215087402584        0.0000000000000000        0.00000000    
  -1.5976388848016136        0.0000000000000000        0.00000000    
  -1.6722079794441476        0.0000000000000000        0.00000000    
  -1.7251814011901740        0.0000000000000000        0.00000000    
  -1.7499112959383611        0.0000000000000000        0.00000000    
  -1.7426495497147605        0.0000000000000000        0.00000000    
  -1.6961189037978130        0.0000000000000000        0.00000000    
  -1.6076881094341200        0.0000000000000000        0.00000000    
  -1.4718990497412827        0.0000000000000000        0.00000000    
  -1.2931042801844093        0.0000000000000000        0.00000000    
  -1.0727064320693414        0.0000000000000000        0.00000000    
 -0.82643986256038704        0.0000000000000000        0.00000000    
 -0.56122891074690928        0.0000000000000000        0.00000000    
 -0.29139323271870493        0.0000000000000000        0.00000000    
  -1.8131723667064666E-002   0.0000000000000000        0.00000000    
  0.25802180324477841        0.0000000000000000        0.00000000    
  0.53447000361115782        0.0000000000000000        0.00000000    
  0.81000859216652610        0.0000000000000000        0.00000000    
   1.0671984106284571        0.0000000000000000        0.00000000    
   1.2981822062010671        0.0000000000000000        0.00000000    
   1.4859507073762346        0.0000000000000000        0.00000000    
   1.6279751648897431        0.0000000000000000        0.00000000    
   1.7211764514543135        0.0000000000000000        0.00000000    
   1.7696471488224821        0.0000000000000000        0.00000000    
   1.7781741370271398        0.0000000000000000        0.00000000    
   1.7526566582010794        0.0000000000000000        0.00000000    
   1.6987867575650264        0.0000000000000000        0.00000000    
   1.6220230428781142        0.0000000000000000        0.00000000    
   1.5267828348432633        0.0000000000000000        0.00000000    
   1.4172851590873399        0.0000000000000000        0.00000000    
   1.2964532984711423        0.0000000000000000        0.00000000    
   1.1672323658145876        0.0000000000000000        0.00000000    
   1.0313870038801793        0.0000000000000000        0.00000000    
  0.89084839126101767        0.0000000000000000        0.00000000    
  0.74661859935187724        0.0000000000000000        0.00000000    
  0.59991364554213611        0.0000000000000000        0.00000000    
  0.45129620712156132        0.0000000000000000        0.00000000    
  0.30151308348591832        0.0000000000000000        0.00000000    
  0.15092579388017813        0.0000000000000000        0.00000000    
   0.0000000000000000        0.0000000000000000        0.00000000    
   0.0000000000000000       0.14907645034885034        0.00000000    
 -0.14858522904818158       0.14884783757429748        0.00000000    
 -0.29670844765254967       0.14829374800512912        0.00000000    
 -0.44417127374370446       0.14721267070589983        0.00000000    
 -0.59010909689565183       0.14566304612493644        0.00000000    
 -0.73444122711504789       0.14336390920473022        0.00000000    
 -0.87574249957512484       0.14028151628275384        0.00000000    
  -1.0138669532754858       0.13603499852110518        0.00000000    
  -1.1466311395077946       0.13046336507295683        0.00000000    
  -1.2735723747568626       0.12306053797099677        0.00000000    
  -1.3915028833049237       0.11349400800380717        0.00000000    
  -1.4993063693221191       0.10112015278813764        0.00000000    
  -1.5925240230620350        8.5414877014982654E-002   0.00000000    
  -1.6690137836114043        6.5643978176480475E-002   0.00000000    
  -1.7228783812246113        4.1194041184907507E-002   0.00000000    
  -1.7507870084584711        1.1444480796383220E-002   0.00000000    
  -1.7456459331972951       -2.3847302278650222E-002   0.00000000    
  -1.7036838140720962       -6.4645462764639505E-002   0.00000000    
  -1.6179052938752163      -0.10956385179302273        0.00000000    
  -1.4872801850230257      -0.15685031675362193        0.00000000    
  -1.3081465472030718      -0.20107809061986981        0.00000000    
  -1.0898945110566904      -0.23757179364376993        0.00000000    
 -0.83754656539761052      -0.26104272152051622        0.00000000    
 -0.57054784993956120      -0.27116694575376965        0.00000000    
 -0.29487361258941369      -0.27434296962049859        0.00000000    
  -1.8534667168695489E-002 -0.27525748485492368        0.00000000    
  0.26013225840625148      -0.27956296762764005        0.00000000    
  0.54366154170710868      -0.28041451604250972        0.00000000    
  0.82085709217903169      -0.27231962298070655        0.00000000    
   1.0850553370641454      -0.24906844036877945        0.00000000    
   1.3140068452134688      -0.21086686334946855        0.00000000    
   1.5017135116192719      -0.16460830423339934        0.00000000    
   1.6391211673605275      -0.11482380901816039        0.00000000    
   1.7285855324577146       -6.7841842645010253E-002   0.00000000    
   1.7732698538836464       -2.5313176146354966E-002   0.00000000    
   1.7786715654418279        1.1384476382515194E-002   0.00000000    
   1.7506898968885878        4.2114670999106527E-002   0.00000000    
   1.6951298126184899        6.7315313906395072E-002   0.00000000    
   1.6170641964495249        8.7514016951455303E-002   0.00000000    
   1.5212902906973278       0.10350009683524014        0.00000000    
   1.4113421484946969       0.11594572112499883        0.00000000    
   1.2907037924237783       0.12552449556201734        0.00000000    
   1.1615852967058602       0.13281493281389983        0.00000000    
   1.0263304162614644       0.13828530956501572        0.00000000    
  0.88622438962854233       0.14235932968831091        0.00000000    
  0.74277155596693123       0.14532329588273610        0.00000000    
  0.59668985282655540       0.14746336106844815        0.00000000    
  0.44891475132946895       0.14892917884967502        0.00000000    
  0.29986704833222178       0.14990164778412435        0.00000000    
  0.15012173621759761       0.15043095393685255        0.00000000    
   0.0000000000000000       0.15061657616168303        0.00000000    
   0.0000000000000000       0.29649406555288266        0.00000000    
 -0.14617738585550402       0.29619283727480411        0.00000000    
 -0.29206331621184006       0.29495789726573896        0.00000000    
 -0.43703744698745384       0.29298547831335919        0.00000000    
 -0.58101177143651062       0.28980238611843789        0.00000000    
 -0.72290429634369335       0.28544922433958209        0.00000000    
 -0.86268738934977107       0.27928056661352468        0.00000000    
 -0.99865629416125590       0.27112930670447499        0.00000000    
  -1.1306537160580727       0.26013066501763416        0.00000000    
  -1.2561472992241192       0.24582805644432451        0.00000000    
  -1.3745825787768371       0.22709227762954867        0.00000000    
  -1.4823514479158773       0.20309423832221751        0.00000000    
  -1.5781450464372360       0.17245204373972933        0.00000000    
  -1.6570351132093888       0.13398663877766448        0.00000000    
  -1.7165810454329367        8.6261910417148938E-002   0.00000000    
  -1.7504520865546978        2.8156279925150806E-002   0.00000000    
  -1.7549596413295088       -4.1192621898162918E-002   0.00000000    
  -1.7227817435857655      -0.12144016000753205        0.00000000    
  -1.6498903633459698      -0.21143905499243731        0.00000000    
  -1.5294480099147081      -0.30604257582980587        0.00000000    
  -1.3605370581543554      -0.39993042113109595        0.00000000    
  -1.1393818360662806      -0.47812672135772161        0.00000000    
 -0.88187502610924573      -0.53034254943143111        0.00000000    
 -0.59741334565409876      -0.55332751374540745        0.00000000    
 -0.30967303622249975      -0.55559694842074325        0.00000000    
  -2.0499607550666012E-002 -0.55951588013572728        0.00000000    
  0.27222886483468456      -0.56669997031758323        0.00000000    
  0.56852997807048644      -0.57310790987786331        0.00000000    
  0.86602493607066300      -0.55431673762697409        0.00000000    
   1.1360304087031223      -0.50127504322981509        0.00000000    
   1.3685069490613242      -0.42008830900396876        0.00000000    
   1.5462506074666909      -0.32083718338128081        0.00000000    
   1.6719695755301600      -0.22172155368149071        0.00000000    
   1.7490857647696620      -0.12752465231104607        0.00000000    
   1.7825577861629958       -4.3786709304708508E-002   0.00000000    
   1.7788591959030855        2.8154888248612273E-002   0.00000000    
   1.7438498311380195        8.8335292447366126E-002   0.00000000    
   1.6831309489329562       0.13737365893819883        0.00000000    
   1.6018770312942057       0.17677520572441047        0.00000000    
   1.5040526502865039       0.20783719482615678        0.00000000    
   1.3935572097470907       0.23205220587400305        0.00000000    
   1.2729252822608925       0.25068829437333162        0.00000000    
   1.1448390240270836       0.26485588795288589        0.00000000    
   1.0108027859058109       0.27553547299425057        0.00000000    
  0.87257381934820566       0.28344415944877199        0.00000000    
  0.73099974867396433       0.28926537046012268        0.00000000    
  0.58719595397540147       0.29340678432968831        0.00000000    
  0.44164038828026525       0.29631642278216064        0.00000000    
  0.29502552546432365       0.29817696966498758        0.00000000    
  0.14766746399540048       0.29925900564058211        0.00000000    
   0.0000000000000000       0.29957772467155697        0.00000000    
   0.0000000000000000       0.44089827592608855        0.00000000    
 -0.14227355310542186       0.44023956586307655        0.00000000    
 -0.28413889726250402       0.43866244319216757        0.00000000    
 -0.42545885622541146       0.43557502212526694        0.00000000    
 -0.56544755071416786       0.43117586124638224        0.00000000    
 -0.70413131495739389       0.42465203836108351        0.00000000    
 -0.84022263064521463       0.41595216128877732        0.00000000    
 -0.97378071416092704       0.40398470035460193        0.00000000    
  -1.1028597570575687       0.38835173616473712        0.00000000    
  -1.2273693848073663       0.36761019621027757        0.00000000    
  -1.3445058146602564       0.34088184727403037        0.00000000    
  -1.4537586028498728       0.30632632600247334        0.00000000    
  -1.5512279599632046       0.26248291170023852        0.00000000    
  -1.6355945257672164       0.20721240338805882        0.00000000    
  -1.7016420122561215       0.13862956452676725        0.00000000    
  -1.7467728817813737        5.4790536455685719E-002   0.00000000    
  -1.7644253387666773       -4.5666866659256150E-002   0.00000000    
  -1.7503423484105840      -0.16322680335503570        0.00000000    
  -1.6969997654028295      -0.29588637488108438        0.00000000    
  -1.5988321162184489      -0.44020525856780057        0.00000000    
  -1.4485200656896502      -0.58499074066849110        0.00000000    
  -1.2416591293471919      -0.72108256026446527        0.00000000    
 -0.96973316217861472      -0.81681948763402601        0.00000000    
 -0.66378680736928264      -0.85725861082374788        0.00000000    
 -0.34162190817417815      -0.86157105995064076        0.00000000    
  -2.3880531025351627E-002 -0.86045657444474766        0.00000000    
  0.29857789753737257      -0.88094617693740185        0.00000000    
  0.63341226658863636      -0.88999718556267338        0.00000000    
  0.95408497283437010      -0.85559512617016265        0.00000000    
   1.2424804502608149      -0.75839760476070528        0.00000000    
   1.4607313725662170      -0.61369321012126221        0.00000000    
   1.6177320727334936      -0.46197664084916235        0.00000000    
   1.7218028298039643      -0.31037182133470603        0.00000000    
   1.7773019057739314      -0.17148964987740187        0.00000000    
   1.7930993131042172       -4.9091140451464434E-002   0.00000000    
   1.7748358267256696        5.5421396025847121E-002   0.00000000    
   1.7289198148020937       0.14199416136727167        0.00000000    
   1.6607057280039339       0.21264775901534672        0.00000000    
   1.5744049643045381       0.26905578699222393        0.00000000    
   1.4741939737454595       0.31359198512047021        0.00000000    
   1.3627330018232089       0.34825382804677368        0.00000000    
   1.2429181665981286       0.37493343490844888        0.00000000    
   1.1163366780964104       0.39527849415755095        0.00000000    
  0.98491385701852019       0.41057192598642234        0.00000000    
  0.84955062088943334       0.42199990914655955        0.00000000    
  0.71149853487611303       0.43033577744848800        0.00000000    
  0.57125921812463609       0.43637948879376681        0.00000000    
  0.42963007635977213       0.44052842577749096        0.00000000    
  0.28691713063208191       0.44329277521491350        0.00000000    
  0.14362123832057250       0.44479715387124902        0.00000000    
   0.0000000000000000       0.44532827875775111        0.00000000    
   0.0000000000000000       0.58035516793210773        0.00000000    
 -0.13674531541646243       0.57980154237991910        0.00000000    
 -0.27326680254661923       0.57748729796253107        0.00000000    
 -0.40902530693366618       0.57382863070685808        0.00000000    
 -0.54403354494284406       0.56791918516164830        0.00000000    
 -0.67734790741280160       0.55990684116208156        0.00000000    
 -0.80913582665308914       0.54857659341368681        0.00000000    
 -0.93793845133465548       0.53372097643124194        0.00000000    
  -1.0639743770199166       0.51373042866654151        0.00000000    
  -1.1851267890520321       0.48789354349601155        0.00000000    
  -1.3015086675723777       0.45411680835662566        0.00000000    
  -1.4101617272520861       0.41099721279641105        0.00000000    
  -1.5108240027580451       0.35594365751897827        0.00000000    
  -1.5994683624205324       0.28676258304491004        0.00000000    
  -1.6749814906968259       0.20063999962646420        0.00000000    
  -1.7320535180240673        9.4982998219831263E-002   0.00000000    
  -1.7679839613684818       -3.2276428104764734E-002   0.00000000    
  -1.7762102545389344      -0.18247393908113252        0.00000000    
  -1.7512829542782484      -0.35490912243737999        0.00000000    
  -1.6856917807385905      -0.54494133371836928        0.00000000    
  -1.5705250651290048      -0.74573343167362349        0.00000000    
  -1.3990913804829186      -0.93863449022713241        0.00000000    
  -1.1562827418418682       -1.1140021635022339        0.00000000    
 -0.81646131156043156       -1.2058437200218832        0.00000000    
 -0.42751187790478790       -1.2241002836289447        0.00000000    
  -2.7515739902915282E-002  -1.2156648658898483        0.00000000    
  0.37508636949290597       -1.2507984234776033        0.00000000    
  0.78023459531788764       -1.2601275338719335        0.00000000    
   1.1486042835196586       -1.1745071723319298        0.00000000    
   1.4063418610564857      -0.98561861353898561        0.00000000    
   1.5855643630416201      -0.78394562565315018        0.00000000    
   1.7090711984497280      -0.57223176087326810        0.00000000    
   1.7774548499296896      -0.37257110987703262        0.00000000    
   1.8051444860077754      -0.19247907336725639        0.00000000    
   1.7967486708118265       -3.5503309108745496E-002   0.00000000    
   1.7603831269362684        9.6462594950054520E-002   0.00000000    
   1.7013217469744601       0.20593035431840528        0.00000000    
   1.6238657313661149       0.29438166848097236        0.00000000    
   1.5324074491956106       0.36508092338876824        0.00000000    
   1.4294726790049117       0.42071260948183392        0.00000000    
   1.3180274825927738       0.46403937201399026        0.00000000    
   1.1995355639193299       0.49745464484612900        0.00000000    
   1.0759601126775082       0.52291422395920650        0.00000000    
  0.94812331000166294       0.54219581994339727        0.00000000    
  0.81733024320601111       0.55653231811148152        0.00000000    
  0.68403493151093009       0.56715076619559279        0.00000000    
  0.54910077577398286       0.57473797253343528        0.00000000    
  0.41279510394452412       0.58010475563464403        0.00000000    
  0.27567949230211808       0.58354500272728527        0.00000000    
  0.13796102201849644       0.58555928895546283        0.00000000    
   0.0000000000000000       0.58614840401305324        0.00000000    
   0.0000000000000000       0.71385232727347236        0.00000000    
 -0.12977723130941460       0.71282692976482875        0.00000000    
 -0.25921833670047251       0.71042450310051319        0.00000000    
 -0.38826553094358274       0.70569712419813635        0.00000000    
 -0.51624784833197612       0.69904124707094251        0.00000000    
 -0.64333908354328728       0.68919037693179408        0.00000000    
 -0.76846184867327849       0.67620374201868272        0.00000000    
 -0.89197726514975140       0.65841186898052451        0.00000000    
  -1.0123093731834663       0.63540756984226354        0.00000000    
  -1.1299497641259615       0.60500920528943625        0.00000000    
  -1.2427037675927075       0.56613702855816705        0.00000000    
  -1.3510826201202755       0.51600890479469219        0.00000000    
  -1.4521109913410442       0.45262261225748346        0.00000000    
  -1.5460408581702973       0.37265785478832314        0.00000000    
  -1.6288802751086824       0.27309727311040577        0.00000000    
  -1.6999482163139095       0.15066569325569981        0.00000000    
  -1.7540276255662772        2.0507294719786630E-003   0.00000000    
  -1.7883518696040068      -0.17425055946573725        0.00000000    
  -1.7969196472243683      -0.37949202467351761        0.00000000    
  -1.7723848592980485      -0.61048439296820955        0.00000000    
  -1.7090873097914459      -0.85865463751601967        0.00000000    
  -1.5952437653240135       -1.1109905135229154        0.00000000    
  -1.4345109563123384       -1.3451875878301880        0.00000000    
  -1.2018244938379570       -1.5471661884800152        0.00000000    
 -0.85775410968133292       -1.6157976329491117        0.00000000    
  -4.5776029121200795E-002  -2.0359417351694638        0.00000000    
  0.79198773000696077       -1.6708874226844661        0.00000000    
   1.1845093926594941       -1.6377084231760131        0.00000000    
   1.4346730436048221       -1.4154596221424620        0.00000000    
   1.6036068265754662       -1.1713375242638677        0.00000000    
   1.7305140547371114      -0.90435644504794976        0.00000000    
   1.7973129167437263      -0.64212663891607913        0.00000000    
   1.8262379669471414      -0.39998493349539682        0.00000000    
   1.8178218474318821      -0.18433876633019775        0.00000000    
   1.7835125983541009       -9.3855185413774548E-004   0.00000000    
   1.7277176270723626       0.15405835283810876        0.00000000    
   1.6544768621027810       0.28063674137608025        0.00000000    
   1.5686313875224034       0.38297677160062954        0.00000000    
   1.4722301412060028       0.46434534876738326        0.00000000    
   1.3682046383731346       0.52840845711808038        0.00000000    
   1.2576284844285002       0.57836487474343878        0.00000000    
   1.1423422643038510       0.61690728090829150        0.00000000    
   1.0229070409378525       0.64647226251175549        0.00000000    
  0.90056313836326074       0.66881848663666743        0.00000000    
  0.77560851567414568       0.68565734090814501        0.00000000    
  0.64890664028664247       0.69802293047850061        0.00000000    
  0.52063203917810896       0.70707456509966959        0.00000000    
  0.39138214043464964       0.71332373363974289        0.00000000    
  0.26129740884888764       0.71752636795265101        0.00000000    
  0.13077910950011876       0.71981469336222059        0.00000000    
   0.0000000000000000       0.72063313112591865        0.00000000    
   0.0000000000000000       0.83924237031586080        0.00000000    
 -0.12128466646410695       0.83849878449705084        0.00000000    
 -0.24240196175632281       0.83531104905111953        0.00000000    
 -0.36289231002065914       0.83034812075761899        0.00000000    
 -0.48285635628486573       0.82233661416202897        0.00000000    
 -0.60150326234267448       0.81163315111410894        0.00000000    
 -0.71919398882928132       0.79657445944922811        0.00000000    
 -0.83475302249313721       0.77711560169639038        0.00000000    
 -0.94881074512336627       0.75109366778469577        0.00000000    
  -1.0597371997310392       0.71788995290530466        0.00000000    
  -1.1684467747561089       0.67471985942626755        0.00000000    
  -1.2727607437599053       0.62011889546848753        0.00000000    
  -1.3738373169752720       0.55061756600937550        0.00000000    
  -1.4688041858313026       0.46355963673511374        0.00000000    
  -1.5587481980637186       0.35497892032084527        0.00000000    
  -1.6397971057359231       0.22090089493955978        0.00000000    
  -1.7119165751360397        5.8014406423268494E-002   0.00000000    
  -1.7701057848709592      -0.13770078262331134        0.00000000    
  -1.8118533638831642      -0.36572644490518341        0.00000000    
  -1.8331615612778602      -0.62747656324211143        0.00000000    
  -1.8246972635784802      -0.91342431447502892        0.00000000    
  -1.7883950003252900       -1.2063666442526959        0.00000000    
  -1.7256328876579434       -1.4733063788125795        0.00000000    
  -1.6419312998582942       -1.7354354477326992        0.00000000    
  -1.8203074134376545       -1.5932226443146693        0.00000000    
   8.4210631779005110E-005  -4.6908864268663661        0.00000000    
   1.7994211220732426       -1.6530434147017627        0.00000000    
   1.6072917277861472       -1.8559446994803805        0.00000000    
   1.7200473349615333       -1.5601426039965853        0.00000000    
   1.8037972151313948       -1.2793382055140861        0.00000000    
   1.8465702183874126      -0.96603599524621464        0.00000000    
   1.8627745099643145      -0.66345024227172211        0.00000000    
   1.8414841882342594      -0.38629605863821109        0.00000000    
   1.8008831792130040      -0.14901051262693676        0.00000000    
   1.7418866763225138        5.7038946390855862E-002   0.00000000    
   1.6669099063618256       0.22685259585466500        0.00000000    
   1.5824867503134532       0.36550641936179534        0.00000000    
   1.4896332730140140       0.47680604550989181        0.00000000    
   1.3912873494047144       0.56526324477171452        0.00000000    
   1.2878205947191024       0.63498281864415407        0.00000000    
   1.1807841754585098       0.68940308641341697        0.00000000    
   1.0702643927586628       0.73167507207207383        0.00000000    
  0.95729396753645279       0.76411011992943856        0.00000000    
  0.84188027361654538       0.78893822572051664        0.00000000    
  0.72480016501910949       0.80757233310616483        0.00000000    
  0.60606086014476435       0.82154911854744384        0.00000000    
  0.48625496581677830       0.83162887246436745        0.00000000    
  0.36542422764926064       0.83885006318943101        0.00000000    
  0.24400386234410468       0.84350513529263693        0.00000000    
  0.12209592324177107       0.84626216447516578        0.00000000    
   0.0000000000000000       0.84706069275516438        0.00000000    
   0.0000000000000000       0.95593269323163299        0.00000000    
 -0.11150314507194324       0.95459627311758355        0.00000000    
 -0.22270908098162925       0.95153679163451710        0.00000000    
 -0.33359382082445205       0.94549746627984277        0.00000000    
 -0.44357585172123620       0.93713334580465724        0.00000000    
 -0.55291427541330240       0.92482174921792726        0.00000000    
 -0.66071777253447106       0.90888008495901973        0.00000000    
 -0.76756891292777485       0.88722015023825684        0.00000000    
 -0.87222969410021933       0.85970762305354420        0.00000000    
 -0.97568722305311695       0.82365998118916983        0.00000000    
  -1.0763058505166918       0.77827803364163484        0.00000000    
  -1.1755946657364600       0.72016350546607388        0.00000000    
  -1.2714410743414044       0.64749593784570747        0.00000000    
  -1.3659457687720979       0.55615282817160039        0.00000000    
  -1.4563742772147965       0.44275824957672832        0.00000000    
  -1.5450163952669285       0.30281259139011685        0.00000000    
  -1.6279175983546967       0.13112338248230535        0.00000000    
  -1.7057272922244120       -7.4810855100454501E-002   0.00000000    
  -1.7733529677227058      -0.31924311789039705        0.00000000    
  -1.8293781535005023      -0.59662650711283871        0.00000000    
  -1.8730083812263916      -0.90910844054425111        0.00000000    
  -1.8969581028544971       -1.2230350598431712        0.00000000    
  -1.9150568092312774       -1.5013013694718278        0.00000000    
  -2.0830438689496127       -1.6231549852127869        0.00000000    
  -3.2748209659420167      -0.33534989433732298        0.00000000    
   4.4895708085827284       -15.533543015769444        0.00000000    
   7.7842538656684814        4.0955936901456456        0.00000000    
   2.0968184328646253       -1.7250170012577306        0.00000000    
   1.9073946897152629       -1.6144021661560277        0.00000000    
   1.9097806167569680       -1.3112144506059300        0.00000000    
   1.9015661863122504      -0.96871832292745463        0.00000000    
   1.8565280372858899      -0.63193405717376283        0.00000000    
   1.8053480130224353      -0.34534189771174195        0.00000000    
   1.7399495217278163       -8.3965173263817985E-002   0.00000000    
   1.6573603566147947       0.13357927505591827        0.00000000    
   1.5704412233083371       0.31220817043608567        0.00000000    
   1.4780910557066744       0.45692416844995259        0.00000000    
   1.3836037418670464       0.57272908754476326        0.00000000    
   1.2863466739616474       0.66494319426693305        0.00000000    
   1.1874312671912270       0.73768503059267776        0.00000000    
   1.0862694403497106       0.79489912057901913        0.00000000    
  0.98353646306865627       0.83943179787815225        0.00000000    
  0.87881564542028479       0.87404463700316481        0.00000000    
  0.77270443473978923       0.90052861324054101        0.00000000    
  0.66496277591070529       0.92080371301951336        0.00000000    
  0.55613137677628388       0.93588844263841964        0.00000000    
  0.44611277154328804       0.94711404793915277        0.00000000    
  0.33536113963816871       0.95494725778481071        0.00000000    
  0.22389642566518131       0.96029301997829697        0.00000000    
  0.11206668423893323       0.96321196031743761        0.00000000    
   0.0000000000000000       0.96427350439470960        0.00000000    
   0.0000000000000000        1.0616822930412366        0.00000000    
 -0.10042365293318642        1.0607734713142933        0.00000000    
 -0.20067334986935373        1.0568152262828516        0.00000000    
 -0.30031716539922593        1.0507475870074019        0.00000000    
 -0.39945351887590647        1.0410016094476973        0.00000000    
 -0.49738747139740908        1.0282258617937787        0.00000000    
 -0.59453611329164535        1.0104281113934963        0.00000000    
 -0.68992402875564429       0.98791117966873299        0.00000000    
 -0.78438400280920584       0.95813734884152890        0.00000000    
 -0.87663060598932441       0.92093438754449575        0.00000000    
 -0.96808450958948788       0.87307615833965635        0.00000000    
  -1.0570961863470214       0.81366587275874469        0.00000000    
  -1.1459359392588593       0.73867973205605786        0.00000000    
  -1.2324807932451241       0.64601858239531307        0.00000000    
  -1.3201076441462902       0.53094785467903938        0.00000000    
  -1.4060601088602303       0.38921756907552613        0.00000000    