 <VTKFile type="UnstructuredGrid" version="0.1" byte_order="BigEndian">
 <UnstructuredGrid>
 <Piece NumberOfPoints="        2601 " NumberOfCells="        2500 ">
 <PointData Scalars="scalars">
 <DataArray type="Float32" NumberOfComponents="3" Name="Velocity" Format="ascii">
   0.0000000000000000        0.0000000000000000        0.00000000    
 -0.13541089797465189        0.0000000000000000        0.00000000    
 -0.27002192161031552        0.0000000000000000        0.00000000    
 -0.40296173788193951        0.0000000000000000        0.00000000    
 -0.53337414733210631        0.0000000000000000        0.00000000    
 -0.66020414139690575        0.0000000000000000        0.00000000    
 -0.78239230721566622        0.0000000000000000        0.00000000    
 -0.89860541280766337        0.0000000000000000        0.00000000    
  -1.0074147318256448        0.0000000000000000        0.00000000    
  -1.1071496353199255        0.0000000000000000        0.00000000    
  -1.1958418894840521        0.0000000000000000        0.00000000    
  -1.2715062149083967        0.0000000000000000        0.00000000    
  -1.3315073670851794        0.0000000000000000        0.00000000    
  -1.3737395872779039        0.0000000000000000        0.00000000    
  -1.3949114426618723        0.0000000000000000        0.00000000    
  -1.3932944037455550        0.0000000000000000        0.00000000    
  -1.3652324127075055        0.0000000000000000        0.00000000    
  -1.3102930364427952        0.0000000000000000        0.00000000    
  -1.2251127464422520        0.0000000000000000        0.00000000    
  -1.1118451438521819        0.0000000000000000        0.00000000    
 -0.96818840712778875        0.0000000000000000        0.00000000    
 -0.80015913483304457        0.0000000000000000        0.00000000    
 -0.60673281069024043        0.0000000000000000        0.00000000    
 -0.39834876644797546        0.0000000000000000        0.00000000    
 -0.17454636973041399        0.0000000000000000        0.00000000    
   5.0725385251140009E-002   0.0000000000000000        0.00000000    
  0.27838291155909478        0.0000000000000000        0.00000000    
  0.49354810971967861        0.0000000000000000        0.00000000    
  0.69795835444746990        0.0000000000000000        0.00000000    
  0.87903194350363212        0.0000000000000000        0.00000000    
   1.0390134902476542        0.0000000000000000        0.00000000    
   1.1697862703778545        0.0000000000000000        0.00000000    
   1.2738569162525053        0.0000000000000000        0.00000000    
   1.3478097420948103        0.0000000000000000        0.00000000    
   1.3944457693581958        0.0000000000000000        0.00000000    
   1.4138233080286731        0.0000000000000000        0.00000000    
   1.4089337341952226        0.0000000000000000        0.00000000    
   1.3816837712192678        0.0000000000000000        0.00000000    
   1.3349200349629713        0.0000000000000000        0.00000000    
   1.2711408476840047        0.0000000000000000        0.00000000    
   1.1927551151391911        0.0000000000000000        0.00000000    
   1.1021513997988099        0.0000000000000000        0.00000000    
   1.0012004790043589        0.0000000000000000        0.00000000    
  0.89189907300853699        0.0000000000000000        0.00000000    
  0.77563172683012804        0.0000000000000000        0.00000000    
  0.65395877908745537        0.0000000000000000        0.00000000    
  0.52790243593488295        0.0000000000000000        0.00000000    
  0.39865030120590850        0.0000000000000000        0.00000000    
  0.26700437148606265        0.0000000000000000        0.00000000    
  0.13388162570835149        0.0000000000000000        0.00000000    
   0.0000000000000000        0.0000000000000000        0.00000000    
   0.0000000000000000       0.13540371449985425        0.00000000    
 -0.13499288207051802       0.13500006554243643        0.00000000    
 -0.26917703508901980       0.13379511110898298        0.00000000    
 -0.40175588999564887       0.13172356006625713        0.00000000    
 -0.53179067477577713       0.12872363416142821        0.00000000    
 -0.65836220362932796       0.12467788875377091        0.00000000    
 -0.78029822653199743       0.11944629996519300        0.00000000    
 -0.89640147180586793       0.11287005089737752        0.00000000    
  -1.0051846786657745       0.10472247497820013        0.00000000    
  -1.1050006270438271        9.4828376890678370E-002   0.00000000    
  -1.1940159029601121        8.2879153187591356E-002   0.00000000    
  -1.2699711994187255        6.8740468691741066E-002   0.00000000    
  -1.3307703711395538        5.2059855203912306E-002   0.00000000    
  -1.3734556821034016        3.2857675948847288E-002   0.00000000    
  -1.3959782646511787        1.0836761981142832E-002   0.00000000    
  -1.3947917373437571       -1.3640328208897786E-002   0.00000000    
  -1.3685758021807930       -4.0637597993657744E-002   0.00000000    
  -1.3136554549109551       -6.9222125545120014E-002   0.00000000    
  -1.2305695943760360       -9.9044024991668603E-002   0.00000000    
  -1.1163289344447220      -0.12846423753416220        0.00000000    
 -0.97472930883685338      -0.15679212479922336        0.00000000    
 -0.80413706507953309      -0.18182939125748812        0.00000000    
 -0.61271926162412693      -0.20301473634168257        0.00000000    
 -0.39994493926207658      -0.21814363026743461        0.00000000    
 -0.17837938237753553      -0.22722432333553058        0.00000000    
   5.2525746277991218E-002 -0.22895256030643452        0.00000000    
  0.27758928988843040      -0.22376850961280595        0.00000000    
  0.49822782440451113      -0.21203522306873107        0.00000000    
  0.69997363912097377      -0.19412083637644137        0.00000000    
  0.88496968188990888      -0.17194879545342398        0.00000000    
   1.0425887984283151      -0.14565186783006889        0.00000000    
   1.1752345520825680      -0.11776666595897342        0.00000000    
   1.2773460733592275       -8.8415501193593968E-002   0.00000000    
   1.3515605988490893       -5.9751850142947538E-002   0.00000000    
   1.3966102474084128       -3.1933825681235060E-002   0.00000000    
   1.4154345909812576       -6.2680565662361770E-003   0.00000000    
   1.4093682891421122        1.7223932237140926E-002   0.00000000    
   1.3813879965889562        3.8006323288037699E-002   0.00000000    
   1.3338986626947975        5.6246746860520620E-002   0.00000000    
   1.2695438616621708        7.1887241447342431E-002   0.00000000    
   1.1908488035014690        8.5193549256085563E-002   0.00000000    
   1.0999309228317855        9.6328046750432966E-002   0.00000000    
  0.99899617877449487       0.10555761809904936        0.00000000    
  0.88963338122569002       0.11310658544219566        0.00000000    
  0.77360433990492949       0.11918980205455755        0.00000000    
  0.65207191392982899       0.12401557165998521        0.00000000    
  0.52638431345100001       0.12772837196885534        0.00000000    
  0.39741778312558218       0.13049029308244831        0.00000000    
  0.26619810494756296       0.13237531481272055        0.00000000    
  0.13345482177846457       0.13349071413113217        0.00000000    
   0.0000000000000000       0.13384573335285707        0.00000000    
   0.0000000000000000       0.26993856619281686        0.00000000    
 -0.13370748643250588       0.26916558234974253        0.00000000    
 -0.26666584645826835       0.26677210734278789        0.00000000    
 -0.39804870205616855       0.26270827433462790        0.00000000    
 -0.52706455635031790       0.25678955896377575        0.00000000    
 -0.65270347331723888       0.24882240976995762        0.00000000    
 -0.77399279774390739       0.23852712627435921        0.00000000    
 -0.88964523822354313       0.22554491034022220        0.00000000    
 -0.99834498738340205       0.20953057155067936        0.00000000    
  -1.0984584409102760       0.18994968222211009        0.00000000    
  -1.1881488676653011       0.16646355052253145        0.00000000    
  -1.2654302224231622       0.13839272257278576        0.00000000    
  -1.3277859708010185       0.10556252141607034        0.00000000    
  -1.3730146928505438        6.7269042750145877E-002   0.00000000    
  -1.3978622082549415        2.3795493125945564E-002   0.00000000    
  -1.4003290383343823       -2.5318756580975772E-002   0.00000000    
  -1.3766131712110212       -7.8890971914613028E-002   0.00000000    
  -1.3257854594954912      -0.13671681060817575        0.00000000    
  -1.2441485042555669      -0.19627215571081871        0.00000000    
  -1.1332073194957224      -0.25641795150416918        0.00000000    
 -0.99043581574012074      -0.31320954020067698        0.00000000    
 -0.82130869661891193      -0.36513133873198528        0.00000000    
 -0.62499702449661032      -0.40744226445341841        0.00000000    
 -0.41199111042799014      -0.43949633858335885        0.00000000    
 -0.18216768384830731      -0.45726059849270895        0.00000000    
   4.9426393233241724E-002 -0.46141549088311845        0.00000000    
  0.28380100976401967      -0.45074373918630783        0.00000000    
  0.50437504144003376      -0.42627255968418359        0.00000000    
  0.71336251377035109      -0.39061678681654033        0.00000000    
  0.89709464816479301      -0.34418102217389829        0.00000000    
   1.0580775658405122      -0.29202167533204715        0.00000000    
   1.1882851043382132      -0.23425015060667195        0.00000000    
   1.2901728705753968      -0.17593130406746341        0.00000000    
   1.3611200595823154      -0.11739776176421769        0.00000000    
   1.4039212163396477       -6.2138719383679680E-002   0.00000000    
   1.4194285262637893       -1.0394816359803903E-002   0.00000000    
   1.4107044924804757        3.6141027646775632E-002   0.00000000    
   1.3801272179879267        7.7646794924436172E-002   0.00000000    
   1.3305466922887215       0.11367613481172287        0.00000000    
   1.2646479347657380       0.14471141205147764        0.00000000    
   1.1847637863400098       0.17094858523319123        0.00000000    
   1.0933086199080038       0.19294605787420110        0.00000000    
  0.99204811618533639       0.21113485475057084        0.00000000    
  0.88293697541064275       0.22600328711286297        0.00000000    
  0.76725956432307263       0.23799955278802404        0.00000000    
  0.64651805011647345       0.24747976110645770        0.00000000    
  0.52165287261271098       0.25481696050121105        0.00000000    
  0.39379741552259201       0.26022369196345269        0.00000000    
  0.26369065747975073       0.26396835214922015        0.00000000    
  0.13220225027717958       0.26612936716372648        0.00000000    
   0.0000000000000000       0.26686415237294231        0.00000000    
   0.0000000000000000       0.40276477982332298        0.00000000    
 -0.13155261776012800       0.40159947290884257        0.00000000    
 -0.26238711679127408       0.39813107583822893        0.00000000    
 -0.39181657567757050       0.39216162031969093        0.00000000    
 -0.51898848165061162       0.38352397324421139        0.00000000    
 -0.64312943862991345       0.37186786943136318        0.00000000    
 -0.76315722823953136       0.35679878064825832        0.00000000    
 -0.87807102598287246       0.33783949418418735        0.00000000    
 -0.98647160912133236       0.31433632000481343        0.00000000    
  -1.0869604005758804       0.28574617874349473        0.00000000    
  -1.1777567822789898       0.25115386245989307        0.00000000    
  -1.2568714228636706       0.21009840597119719        0.00000000    
  -1.3221458265291384       0.16148699006250866        0.00000000    
  -1.3708232233557103       0.10525069297208504        0.00000000    
  -1.4005357312586462        4.0373866213864996E-002   0.00000000    
  -1.4076950546850060       -3.2270976171843255E-002   0.00000000    
  -1.3902392824972212      -0.11311039163129652        0.00000000    
  -1.3439918441365626      -0.19957254097751798        0.00000000    
  -1.2683045834528490      -0.29074064126041749        0.00000000    
  -1.1594227720047663      -0.38177246217342908        0.00000000    
  -1.0197945593831990      -0.47025474590283045        0.00000000    
 -0.84767976046272564      -0.54932805108345173        0.00000000    
 -0.65039937540420489      -0.61683760927612896        0.00000000    
 -0.42824004006934613      -0.66526624317684258        0.00000000    
 -0.19472648440602622      -0.69482767613501140        0.00000000    
   5.0240242634123418E-002 -0.70040921737562312        0.00000000    
  0.28810442184649249      -0.68398880842960585        0.00000000    
  0.52112860239727665      -0.64662570268069397        0.00000000    
  0.73139135301090841      -0.58951386675699380        0.00000000    
  0.92205395814658608      -0.51967868177600218        0.00000000    
   1.0815595898526924      -0.43701256510554681        0.00000000    
   1.2123424733165351      -0.35024968280623203        0.00000000    
   1.3101736714206804      -0.25965073620402573        0.00000000    
   1.3775004087515461      -0.17195225597586061        0.00000000    
   1.4149188708627571       -8.7803844036493231E-002   0.00000000    
   1.4255127852153560       -1.0830915993018247E-002   0.00000000    
   1.4118865568913777        5.8927389390254742E-002   0.00000000    
   1.3771132189887341       0.12021104556795212        0.00000000    
   1.3241789470995762       0.17362668175849633        0.00000000    
   1.2556223562875117       0.21921621343255815        0.00000000    
   1.1741230715571422       0.25782721700917971        0.00000000    
   1.0815961221949655       0.29004954188611159        0.00000000    
  0.98019838640883905       0.31668961024756265        0.00000000    
  0.87130565474683108       0.33845240404710958        0.00000000    
  0.75656689901282392       0.35596660267468111        0.00000000    
  0.63696356791728137       0.36985755651722846        0.00000000    
  0.51372983082867296       0.38053807968141956        0.00000000    
  0.38760134982757205       0.38848651087044594        0.00000000    
  0.25950534811256598       0.39390829299800878        0.00000000    
  0.13006345474180650       0.39711972688490893        0.00000000    
   0.0000000000000000       0.39813949766803125        0.00000000    
   0.0000000000000000       0.53291413747715644        0.00000000    
 -0.12846075613075106       0.53146348914324582        0.00000000    
 -0.25631099024010434       0.52695179274076498        0.00000000    
 -0.38284720513994641       0.51930657720157603        0.00000000    
 -0.50745675267117729       0.50816046986209995        0.00000000    
 -0.62925528077923532       0.49317085790007603        0.00000000    
 -0.74751516872527357       0.47378346972971946        0.00000000    
 -0.86108319371460007       0.44933662783565559        0.00000000    
 -0.96897324703826448       0.41912982280893007        0.00000000    
  -1.0696734909799455       0.38214171133697616        0.00000000    
  -1.1617526339145028       0.33763385449638389        0.00000000    
  -1.2432620350382206       0.28424245564569073        0.00000000    
  -1.3120947837681884       0.22145009277448674        0.00000000    
  -1.3658487677835989       0.14771897110601359        0.00000000    
  -1.4015070514369821        6.3276379625899534E-002   0.00000000    
  -1.4163768465413586       -3.3144371047756804E-002   0.00000000    
  -1.4064014443649948      -0.13966817113139007        0.00000000    
  -1.3692244945150525      -0.25643914968108988        0.00000000    
  -1.2999988896001637      -0.37878689816887151        0.00000000    
  -1.1982108383348875      -0.50439606796983405        0.00000000    
  -1.0601311434942706      -0.62533904758356251        0.00000000    
 -0.88912698848071292      -0.73736270332680998        0.00000000    
 -0.68511578825609931      -0.83009454233218760        0.00000000    
 -0.45762454247819911      -0.90165989122249046        0.00000000    
 -0.20830707131142295      -0.94126505493663892        0.00000000    
   4.4315009733446556E-002 -0.95156064664741646        0.00000000    
  0.30159645449453881      -0.92798300314868454        0.00000000    
  0.53979006804537844      -0.87384930205181421        0.00000000    
  0.76353905297353730      -0.79630200294455633        0.00000000    
  0.95518777380266040      -0.69520187154267343        0.00000000    
   1.1180319773690561      -0.58383921062713251        0.00000000    
   1.2453175260849318      -0.46149146945512798        0.00000000    
   1.3387502479026814      -0.33967286949128445        0.00000000    
   1.3990127818554499      -0.21951939396456610        0.00000000    
   1.4289846928933847      -0.10762707920957515        0.00000000    
   1.4320191299153679       -4.6360321884561370E-003   0.00000000    
   1.4114988279286866        8.6879035885294650E-002   0.00000000    
   1.3710159237804096       0.16751564112836184        0.00000000    
   1.3133408386471561       0.23693144321091567        0.00000000    
   1.2415696483995993       0.29623923304288208        0.00000000    
   1.1577485312760813       0.34612459924450045        0.00000000    
   1.0642827169635447       0.38774492332735727        0.00000000    
  0.96260261652539425       0.42207206502355615        0.00000000    
  0.85450352810397023       0.45006176935525755        0.00000000    
  0.74097163658043652       0.47262788461812671        0.00000000    
  0.62333047631003868       0.49044076593939157        0.00000000    
  0.50228681315126644       0.50423227050168973        0.00000000    
  0.37881905069777971       0.51438856350346907        0.00000000    
  0.25349076831173994       0.52143052446202220        0.00000000    
  0.12704090454576744       0.52548925255541601        0.00000000    
   0.0000000000000000       0.52687433128199102        0.00000000    
   0.0000000000000000       0.65952899258288988        0.00000000    
 -0.12441689103457682       0.65772628119966814        0.00000000    
 -0.24827176291060557       0.65239410666772135        0.00000000    
 -0.37106840843148775       0.64319712369099502        0.00000000    
 -0.49210487779879475       0.62991594027041065        0.00000000    
 -0.61086772967420666       0.61197676746966589        0.00000000    
 -0.72643898335159285       0.58880870178400291        0.00000000    
 -0.83818192834555205       0.55962236575779090        0.00000000    
 -0.94487436342043762       0.52342657328714570        0.00000000    
  -1.0456069391955869       0.47927778056731551        0.00000000    
  -1.1387446471811646       0.42571463618946159        0.00000000    
  -1.2228862202745112       0.36181264815985159        0.00000000    
  -1.2958609269288610       0.28568735564956271        0.00000000    
  -1.3554699470253937       0.19684471233134260        0.00000000    
  -1.3989257861184947        9.3264761153781073E-002   0.00000000    
  -1.4228832206105479       -2.4305522992625828E-002   0.00000000    
  -1.4240353629290610      -0.15733027903568123        0.00000000    
  -1.3975932413156409      -0.30239611325559024        0.00000000    
  -1.3405613606109852      -0.45908742020316035        0.00000000    
  -1.2467477342925131      -0.61969722353678780        0.00000000    
  -1.1157346828020911      -0.77913063833485585        0.00000000    
 -0.94448790426045470      -0.92582204615015995        0.00000000    
 -0.73685469698578798       -1.0532796069935451        0.00000000    
 -0.49628448434911659       -1.1465362849967329        0.00000000    
 -0.23537004495426428       -1.2066205717082525        0.00000000    
   4.3569192719939219E-002  -1.2177664486167390        0.00000000    
  0.31164408369517155       -1.1871335368996296        0.00000000    
  0.57467788847061130       -1.1159261866488122        0.00000000    
  0.80321991310000318       -1.0065161278897956        0.00000000    
   1.0043678485478063      -0.87778440289482418        0.00000000    
   1.1661477768344986      -0.72588081111431058        0.00000000    
   1.2891885733288626      -0.56977621419679692        0.00000000    
   1.3747628293032677      -0.41039510253001044        0.00000000    
   1.4246377718986452      -0.25893463749047690        0.00000000    
   1.4439628724140952      -0.11750884722742076        0.00000000    
   1.4366947508731733        9.4794203339595619E-003   0.00000000    
   1.4075279170498631       0.12245071918043061        0.00000000    
   1.3595372091744276       0.22041756984456543        0.00000000    
   1.2965213522263765       0.30472045658167068        0.00000000    
   1.2206529205428847       0.37608984159261510        0.00000000    
   1.1346877253822827       0.43606030298282250        0.00000000    
   1.0400704235938854       0.48589233568103801        0.00000000    
  0.93875550560167764       0.52691967110262861        0.00000000    
  0.83168485597039832       0.56038390132141802        0.00000000    
  0.72025657984769620       0.58726592029920732        0.00000000    
  0.60510864360506977       0.60859182676519308        0.00000000    
  0.48725663845919848       0.62497687798026469        0.00000000    
  0.36718221328401551       0.63718614364865234        0.00000000    
  0.24563625975794573       0.64550718022748921        0.00000000    
  0.12305138920495036       0.65044733110517039        0.00000000    
   0.0000000000000000       0.65200854648034745        0.00000000    
   0.0000000000000000       0.78148464071561508        0.00000000    
 -0.11933303444006929       0.77952055853905200        0.00000000    
 -0.23824325817752159       0.77336492493787090        0.00000000    
 -0.35619358301323228       0.76297327577632224        0.00000000    
 -0.47281940995306282       0.74780208448683061        0.00000000    
 -0.58741239116156152       0.72744645633751581        0.00000000    
 -0.69959876985280678       0.70109664527787807        0.00000000    
 -0.80842898905623772       0.66790758646323600        0.00000000    
 -0.91342264635941628       0.62682744495122533        0.00000000    
  -1.0132890538827684       0.57647589220537931        0.00000000    
  -1.1072799507484643       0.51564512939233975        0.00000000    
  -1.1936107602020221       0.44235453750941067        0.00000000    
  -1.2709877779484495       0.35549719068846275        0.00000000    
  -1.3369198199920416       0.25257593944020440        0.00000000    
  -1.3891317885549466       0.13320134168640452        0.00000000    
  -1.4242274480017474       -5.1890095764328126E-003   0.00000000    
  -1.4384311151388629      -0.16109098301317987        0.00000000    
  -1.4273374055721122      -0.33617124044577840        0.00000000    
  -1.3850038532513744      -0.52467772605786978        0.00000000    
  -1.3074446512719702      -0.72547974596484965        0.00000000    
  -1.1852983606780434      -0.92650745801323897        0.00000000    
  -1.0187214983365553       -1.1162688673372807        0.00000000    
 -0.80847255524288519       -1.2807149361992274        0.00000000    
 -0.55539304293517977       -1.4127506807157464        0.00000000    
 -0.26936077856663049       -1.4873528797788254        0.00000000    
   2.8747992563238768E-002  -1.5140821493294716        0.00000000    
  0.34012886227522665       -1.4702735969007945        0.00000000    
  0.61334927150729579       -1.3690403406347109        0.00000000    
  0.86511311304826000       -1.2337078400999224        0.00000000    
   1.0694111606763219       -1.0560386737417473        0.00000000    
   1.2285504711344037      -0.86854577903568930        0.00000000    
   1.3453214194040746      -0.66692299102304098        0.00000000    
   1.4165828480258558      -0.47008401032084113        0.00000000    
   1.4517867576551098      -0.28432458191055660        0.00000000    
   1.4563873422065339      -0.11604458789239047        0.00000000    
   1.4367834063210068        3.4887218436438903E-002   0.00000000    
   1.3964777686431240       0.16651539256354350        0.00000000    
   1.3404482441102887       0.28037312887831523        0.00000000    
   1.2709911501721463       0.37723784842085784        0.00000000    
   1.1913879119997717       0.45904411961566616        0.00000000    
   1.1030527526824958       0.52740637942648916        0.00000000    
   1.0081273976059726       0.58408891610668612        0.00000000    
  0.90744662272994447       0.63071878353592670        0.00000000    
  0.80246381838220937       0.66863824286975815        0.00000000    
  0.69369253474874126       0.69921113849943040        0.00000000    
  0.58216249713768298       0.72332458241967523        0.00000000    
  0.46823578673401495       0.74202283786925394        0.00000000    
  0.35266389091748979       0.75578650475091147        0.00000000    
  0.23576394769624320       0.76535271586791798        0.00000000    
  0.11809474454249107       0.77085586916962068        0.00000000    
   0.0000000000000000       0.77274614216009596        0.00000000    
   0.0000000000000000       0.89791307605486648        0.00000000    
 -0.11321494073956651       0.89564009837612890        0.00000000    
 -0.22604375398677190       0.88898442208378659        0.00000000    
 -0.33820897526585153       0.87746932474023509        0.00000000    
 -0.44918131264770333       0.86090419984461486        0.00000000    
 -0.55875757136315629       0.83851358089700434        0.00000000    
 -0.66622049482697532       0.80967882287523740        0.00000000    
 -0.77139405932204563       0.77332919255586852        0.00000000    
 -0.87330221064407421       0.72830764748749277        0.00000000    
 -0.97171033389723604       0.67327022043512086        0.00000000    
  -1.0652564090465184       0.60638777318337000        0.00000000    
  -1.1534671502154819       0.52615344432818489        0.00000000    
  -1.2343613868975254       0.42996953830629719        0.00000000    
  -1.3068544084256193       0.31652865537886937        0.00000000    
  -1.3679835243836211       0.18258971027940657        0.00000000    
  -1.4154107733721475        2.7945530247954806E-002   0.00000000    
  -1.4448444193133541      -0.15058820974557488        0.00000000    
  -1.4520375602942390      -0.35057458232020128        0.00000000    
  -1.4305806630770397      -0.57406483370456685        0.00000000    
  -1.3728891948909001      -0.81134330850783642        0.00000000    
  -1.2742871495990109       -1.0613922313360127        0.00000000    
  -1.1163782195733627       -1.3058698864089464        0.00000000    
 -0.90186012701229101       -1.5158809527592390        0.00000000    
 -0.64781312912334799       -1.6847111743824716        0.00000000    
 -0.33340973836245769       -1.8158280412162329        0.00000000    
   2.3686148766408600E-002  -1.8408116461825657        0.00000000    
  0.35775506598645540       -1.7889938869538118        0.00000000    
  0.69129957920580931       -1.6570849730645456        0.00000000    
  0.94747587638579434       -1.4536033463665494        0.00000000    
   1.1531098951867123       -1.2460752339332362        0.00000000    
   1.3154095041670821      -0.99994813826094131        0.00000000    
   1.4108887847222940      -0.74777086064858511        0.00000000    
   1.4606195033857128      -0.51022828796207664        0.00000000    
   1.4751573158664546      -0.29392202640185638        0.00000000    
   1.4625863236603884       -9.8476735731370321E-002   0.00000000    
   1.4269663138137827        7.2543311988249592E-002   0.00000000    
   1.3752429351465765       0.22088831536879291        0.00000000    
   1.3097726428409897       0.34750002289512982        0.00000000    
   1.2346233335705081       0.45471735762185156        0.00000000    
   1.1511228784997984       0.54466830364402274        0.00000000    
   1.0616335930928857       0.61960664012903699        0.00000000    
  0.96680276047586333       0.68164484308627249        0.00000000    
  0.86810774976513538       0.73253864214762499        0.00000000    
  0.76586427173249239       0.77404466662909510        0.00000000    
  0.66108072331776480       0.80735954679085742        0.00000000    
  0.55394715057424881       0.83383978447535034        0.00000000    
  0.44519402696440374       0.85418746982786964        0.00000000    
  0.33499369117775513       0.86939410438972597        0.00000000    
  0.22388782405608398       0.87975092657112397        0.00000000    
  0.11208978904356796       0.88592489662857477        0.00000000    
   0.0000000000000000       0.88786164828469238        0.00000000    
   0.0000000000000000        1.0075223402339648        0.00000000    
 -0.10598445190296223        1.0052302268371165        0.00000000    
 -0.21172700867108088       0.99796566363381956        0.00000000    
 -0.31685011773483363       0.98577641353246759        0.00000000    
 -0.42123733995071416       0.96795667064390645        0.00000000    
 -0.52435649342086765       0.94415652228469915        0.00000000    
 -0.62620840905747377       0.91335072057975519        0.00000000    
 -0.72606876630943096       0.87469121660183813        0.00000000    
 -0.82403638535463775       0.82682139379837882        0.00000000    
 -0.91911580613772270       0.76824401816621557        0.00000000    
  -1.0114378706927152       0.69728211514377847        0.00000000    
  -1.0995626569969474       0.61159462984923807        0.00000000    
  -1.1834499613083604       0.50930989376325275        0.00000000    
  -1.2608495432546041       0.38708090340736662        0.00000000    
  -1.3310288345765082       0.24334586951235435        0.00000000    
  -1.3903428527499431        7.3930638191296777E-002   0.00000000    