 <VTKFile type="UnstructuredGrid" version="0.1" byte_order="BigEndian">
 <UnstructuredGrid>
 <Piece NumberOfPoints="        2601 " NumberOfCells="        2500 ">
 <PointData Scalars="scalars">
 <DataArray type="Float32" NumberOfComponents="3" Name="Velocity" Format="ascii">
   0.0000000000000000        0.0000000000000000        0.00000000    
  -9.7237119534720209E-002   0.0000000000000000        0.00000000    
 -0.19356730861764365        0.0000000000000000        0.00000000    
 -0.28827106109117046        0.0000000000000000        0.00000000    
 -0.38020385803549084        0.0000000000000000        0.00000000    
 -0.46876649795038550        0.0000000000000000        0.00000000    
 -0.55255080020131064        0.0000000000000000        0.00000000    
 -0.63099426930423241        0.0000000000000000        0.00000000    
 -0.70244228719729096        0.0000000000000000        0.00000000    
 -0.76627040413506786        0.0000000000000000        0.00000000    
 -0.82067250867895214        0.0000000000000000        0.00000000    
 -0.86486229246941104        0.0000000000000000        0.00000000    
 -0.89709931185590841        0.0000000000000000        0.00000000    
 -0.91637320434925151        0.0000000000000000        0.00000000    
 -0.92137697904313787        0.0000000000000000        0.00000000    
 -0.91091596234467598        0.0000000000000000        0.00000000    
 -0.88459358361575868        0.0000000000000000        0.00000000    
 -0.84123112191105109        0.0000000000000000        0.00000000    
 -0.78176804058629568        0.0000000000000000        0.00000000    
 -0.70540079248224996        0.0000000000000000        0.00000000    
 -0.61453409293244143        0.0000000000000000        0.00000000    
 -0.50916711402232928        0.0000000000000000        0.00000000    
 -0.39283193208611306        0.0000000000000000        0.00000000    
 -0.26667815739111650        0.0000000000000000        0.00000000    
 -0.13463216426908389        0.0000000000000000        0.00000000    
   8.8888589748751547E-004   0.0000000000000000        0.00000000    
  0.13639274001093935        0.0000000000000000        0.00000000    
  0.26842460487573522        0.0000000000000000        0.00000000    
  0.39453179699415553        0.0000000000000000        0.00000000    
  0.51082477946696170        0.0000000000000000        0.00000000    
  0.61612224196239695        0.0000000000000000        0.00000000    
  0.70692564651312639        0.0000000000000000        0.00000000    
  0.78320898835125508        0.0000000000000000        0.00000000    
  0.84259574853537289        0.0000000000000000        0.00000000    
  0.88586783669158053        0.0000000000000000        0.00000000    
  0.91210776230764978        0.0000000000000000        0.00000000    
  0.92247760024241932        0.0000000000000000        0.00000000    
  0.91738994131946805        0.0000000000000000        0.00000000    
  0.89802722355559106        0.0000000000000000        0.00000000    
  0.86570751349483122        0.0000000000000000        0.00000000    
  0.82143254043956848        0.0000000000000000        0.00000000    
  0.76695009618094567        0.0000000000000000        0.00000000    
  0.70304059963620980        0.0000000000000000        0.00000000    
  0.63151486333185092        0.0000000000000000        0.00000000    
  0.55299342493459691        0.0000000000000000        0.00000000    
  0.46913377368582787        0.0000000000000000        0.00000000    
  0.38049588028409009        0.0000000000000000        0.00000000    
  0.28848952261390420        0.0000000000000000        0.00000000    
  0.19371237116460685        0.0000000000000000        0.00000000    
   9.7309615397629362E-002   0.0000000000000000        0.00000000    
   0.0000000000000000        0.0000000000000000        0.00000000    
   0.0000000000000000        9.7340881975471222E-002   0.00000000    
  -9.7043897580743541E-002   9.6941609864772862E-002   0.00000000    
 -0.19328917608316679        9.5635332199917322E-002   0.00000000    
 -0.28772040707866009        9.3501125288975681E-002   0.00000000    
 -0.37969747097010292        9.0410208830926181E-002   0.00000000    
 -0.46794797782322772        8.6404410301085741E-002   0.00000000    
 -0.55191634445910742        8.1349729727282521E-002   0.00000000    
 -0.63006338328852363        7.5242247965942283E-002   0.00000000    
 -0.70182723356998744        6.7971088272854877E-002   0.00000000    
 -0.76544889829442997        5.9480159619803429E-002   0.00000000    
 -0.82025666487711646        4.9731175598214286E-002   0.00000000    
 -0.86441762473227668        3.8621029876946829E-002   0.00000000    
 -0.89705671240141927        2.6256536492479943E-002   0.00000000    
 -0.91655746139781258        1.2519561679962770E-002   0.00000000    
 -0.92181094820550558       -2.2608462732039052E-003   0.00000000    
 -0.91186033005058509       -1.8149337562507948E-002   0.00000000    
 -0.88546751268982948       -3.4564410375010582E-002   0.00000000    
 -0.84283690739278194       -5.1427211434977048E-002   0.00000000    
 -0.78288420984166629       -6.7987124976227137E-002   0.00000000    
 -0.70730899038795181       -8.3953902894586457E-002   0.00000000    
 -0.61559959184930313       -9.8620757843334697E-002   0.00000000    
 -0.51086024077265768      -0.11148413708703685        0.00000000    
 -0.39357729770288402      -0.12213255457150386        0.00000000    
 -0.26766960152610292      -0.12992748447248320        0.00000000    
 -0.13489363422720876      -0.13489304502181523        0.00000000    
   8.8507713250556268E-004 -0.13640528611053776        0.00000000    
  0.13666520324007805      -0.13487726371386580        0.00000000    
  0.26940833856639096      -0.12989630554837617        0.00000000    
  0.39528678598669093      -0.12208790215514546        0.00000000    
  0.51251005824065921      -0.11142691921724494        0.00000000    
  0.61719510541967615       -9.8554155389276532E-002   0.00000000    
  0.70882610563314019       -8.3878812013321216E-002   0.00000000    
  0.78433005258448019       -6.7907037074313323E-002   0.00000000    
  0.84419434011788097       -5.1342568164104332E-002   0.00000000    
  0.88674452537176029       -3.4478260036786945E-002   0.00000000    
  0.91304586986412728       -1.8061561902436116E-002   0.00000000    
  0.92291276404313594       -2.1737191743767970E-003   0.00000000    
  0.91756905054248494        1.2606545522203147E-002   0.00000000    
  0.89798481847525424        2.6341861012274884E-002   0.00000000    
  0.86525878391413080        3.8705342943926829E-002   0.00000000    
  0.82101633226734594        4.9813543609346846E-002   0.00000000    
  0.76612548504497879        5.9561211984737579E-002   0.00000000    
  0.70242494134333955        6.8050294514531526E-002   0.00000000    
  0.63058168901170109        7.5320162208217592E-002   0.00000000    
  0.55235834545400153        8.1426089530656401E-002   0.00000000    
  0.46831367756804176        8.6479700768714488E-002   0.00000000    
  0.37998899946440373        9.0484343124095479E-002   0.00000000    
  0.28793794310612170        9.3574544211997790E-002   0.00000000    
  0.19343396905867399        9.5708055328310421E-002   0.00000000    
   9.7116087865148637E-002   9.7014056135252102E-002   0.00000000    
   0.0000000000000000        9.7413121876088707E-002   0.00000000    
   0.0000000000000000       0.19439137624312361        0.00000000    
  -9.6560427717211517E-002  0.19349685397574296        0.00000000    
 -0.19223848006929717       0.19100483181053873        0.00000000    
 -0.28634766765276648       0.18667345660212278        0.00000000    
 -0.37776017022411068       0.18062885568224507        0.00000000    
 -0.46592261618118369       0.17260012692060100        0.00000000    
 -0.54943076701008031       0.16263194015388496        0.00000000    
 -0.62778624727583399       0.15046396466799866        0.00000000    
 -0.69931368046246001       0.13604206154801032        0.00000000    
 -0.76347225375286443       0.11919082884453228        0.00000000    
 -0.81839198349410247        9.9749405207071318E-002   0.00000000    
 -0.86337763849942939        7.7750815202102211E-002   0.00000000    
 -0.89656557133947079        5.2955169332533206E-002   0.00000000    
 -0.91701082143596091        2.5768322854917931E-002   0.00000000    
 -0.92323330087321231       -4.0322490946262998E-003   0.00000000    
 -0.91403093140178227       -3.5529533116468073E-002   0.00000000    
 -0.88884799967825956       -6.8758577747815977E-002   0.00000000    
 -0.84639321378932597      -0.10231705184719039        0.00000000    
 -0.78757167155206009      -0.13587014410690579        0.00000000    
 -0.71137399654888422      -0.16784240038905515        0.00000000    
 -0.62037448348259661      -0.19743979701395523        0.00000000    
 -0.51433027960993738      -0.22344727978590115        0.00000000    
 -0.39709929742874656      -0.24468196628313790        0.00000000    
 -0.26963655330652969      -0.26074714338129579        0.00000000    
 -0.13618481353858392      -0.27029972473047337        0.00000000    
   8.9256098792119736E-004 -0.27385332422910486        0.00000000    
  0.13795199142290790      -0.27026741408199412        0.00000000    
  0.27138868282731476      -0.26068461345352562        0.00000000    
  0.39880270682319757      -0.24459069598564195        0.00000000    
  0.51598945284296038      -0.22333277280762781        0.00000000    
  0.62196155199487424      -0.19730407504319697        0.00000000    
  0.71289557571222528      -0.16769254133457404        0.00000000    
  0.78900727435019247      -0.13570757549962525        0.00000000    
  0.84775089055436759      -0.10214855321261621        0.00000000    
  0.89011422227785553       -6.8584408550258408E-002   0.00000000    
  0.91521391524064244       -3.5355064666649720E-002   0.00000000    
  0.92432492776620190       -3.8567338466699644E-003   0.00000000    
  0.91801843888231993        2.5941154708737445E-002   0.00000000    
  0.89748474993464222        5.3126567781899864E-002   0.00000000    
  0.86421440593382071        7.7918412414229643E-002   0.00000000    
  0.81914421633188295        9.9914515481946090E-002   0.00000000    
  0.76414465014864275       0.11935205605000716        0.00000000    
  0.69990546358688455       0.13620058521948886        0.00000000    
  0.62830095317301138       0.15061904078099522        0.00000000    
  0.54986832577641997       0.16278458996828510        0.00000000    
  0.46628556697536488       0.17275003662291891        0.00000000    
  0.37804872824498398       0.18077693478776063        0.00000000    
  0.28656348299094619       0.18681966588605772        0.00000000    
  0.19238178283623961       0.19115002022480612        0.00000000    
   9.6632032479280178E-002  0.19364113568015862        0.00000000    
   0.0000000000000000       0.19453557578007485        0.00000000    
   0.0000000000000000       0.29064187408078451        0.00000000    
  -9.5663763053804071E-002  0.28947189860707928        0.00000000    
 -0.19058415030927778       0.28562957820732598        0.00000000    
 -0.28378692984478293       0.27936202835000529        0.00000000    
 -0.37470691733574008       0.27027412419184005        0.00000000    
 -0.46209522503565847       0.25850696146515384        0.00000000    
 -0.54550226914193545       0.24364164856617268        0.00000000    
 -0.62337840392088151       0.22568721810373885        0.00000000    
 -0.69530919966277438       0.20427838194724054        0.00000000    
 -0.75945983959348684       0.17926506490825392        0.00000000    
 -0.81534257875973259       0.15047897892880752        0.00000000    
 -0.86094229580439186       0.11760795226718285        0.00000000    
 -0.89556310046608822        8.0908105780081938E-002   0.00000000    
 -0.91727914308400227        3.9978012496792420E-002   0.00000000    
 -0.92506862269698487       -4.2286492276242928E-003   0.00000000    
 -0.91760071575986824       -5.2002082033059248E-002   0.00000000    
 -0.89353417131470969      -0.10153418051200876        0.00000000    
 -0.85282812661484331      -0.15270095861014413        0.00000000    
 -0.79407011532491489      -0.20306447237201444        0.00000000    
 -0.71908504289395825      -0.25182950451648722        0.00000000    
 -0.62687884057603926      -0.29665709525809386        0.00000000    
 -0.52111412871587537      -0.33603758730012251        0.00000000    
 -0.40178878968371645      -0.36864667137360585        0.00000000    
 -0.27355669343647471      -0.39247597215706159        0.00000000    
 -0.13786983781474360      -0.40770818551291771        0.00000000    
   8.9223578488887179E-004 -0.41228300650026661        0.00000000    
  0.13965549465987689      -0.40765911603954808        0.00000000    
  0.27530635413162702      -0.39237915654400474        0.00000000    
  0.40350591578554590      -0.36850843202827516        0.00000000    
  0.52276644356741830      -0.33586100195586038        0.00000000    
  0.62847227667988548      -0.29645246816775195        0.00000000    
  0.72059515339381464      -0.25159973562154136        0.00000000    
  0.79550500199233010      -0.20282061338793347        0.00000000    
  0.85417144264945555      -0.15244425367509237        0.00000000    
  0.89479471989179749      -0.10127399597084127        0.00000000    
  0.91876868363572006       -5.1737809450071767E-002   0.00000000    
  0.92615207233764474       -3.9670629097876735E-003   0.00000000    
  0.91827272594703668        4.0238649522447045E-002   0.00000000    
  0.89647343900062748        8.1163382259829719E-002   0.00000000    
  0.86176680990233845       0.11785990706577046        0.00000000    
  0.81608641850193153       0.15072494059253186        0.00000000    
  0.76012204236279268       0.17950691416074427        0.00000000    
  0.69589367595893559       0.20451462333950923        0.00000000    
  0.62388506609224981       0.22591946787006156        0.00000000    
  0.54593401253263585       0.24386919066235907        0.00000000    
  0.46245234936462515       0.25873120594245053        0.00000000    
  0.37499143758162995       0.27049486540258794        0.00000000    
  0.28399920991869526       0.27958055840680063        0.00000000    
  0.19072538502446792       0.28584600380263314        0.00000000    
   9.5734182105951721E-002  0.28968745682213209        0.00000000    
   0.0000000000000000       0.29085682094524096        0.00000000    
   0.0000000000000000       0.38597651171832342        0.00000000    
  -9.4432521937331509E-002  0.38423483647239787        0.00000000    
 -0.18805200293120575       0.37940779892381038        0.00000000    
 -0.28026256687080159       0.37099844085368427        0.00000000    
 -0.36998691841448761       0.35928333992436873        0.00000000    
 -0.45679786416923163       0.34369828721748935        0.00000000    
 -0.53930929315227238       0.32437008300719627        0.00000000    
 -0.61720524722681536       0.30073215787854440        0.00000000    
 -0.68876100636905302       0.27272128107537486        0.00000000    
 -0.75368854866400703       0.23990162975072638        0.00000000    
 -0.80994178077041201       0.20197966528873310        0.00000000    
 -0.85712797339927171       0.15889445278917080        0.00000000    
 -0.89301444290352749       0.11013015427593610        0.00000000    
 -0.91691520863899623        5.6374044193843939E-002   0.00000000    
 -0.92678635815696153       -2.9627829101549893E-003   0.00000000    
 -0.92147499545814648       -6.6045952164506913E-002   0.00000000    
 -0.89985346491947993      -0.13317712307823007        0.00000000    
 -0.86032542587003280      -0.20129084031553021        0.00000000    
 -0.80362159570737712      -0.26993517656175986        0.00000000    
 -0.72808215004409238      -0.33548206513486506        0.00000000    
 -0.63685025454801181      -0.39644138303013798        0.00000000    
 -0.52886351869620563      -0.45000349938718676        0.00000000    
 -0.40914229247280992      -0.49372607984813466        0.00000000    
 -0.27792111569530031      -0.52684859288387598        0.00000000    
 -0.14054590314287974      -0.54639639093115500        0.00000000    
   9.0415306888756524E-004 -0.55380568912851269        0.00000000    
  0.14233382625915542      -0.54632812372076622        0.00000000    
  0.27969093282312257      -0.52671687285481994        0.00000000    
  0.41085641612136065      -0.49353451684931282        0.00000000    
  0.53052680826295995      -0.44976459234551752        0.00000000    
  0.63843319417401745      -0.39615984894600370        0.00000000    
  0.72959274135659857      -0.33517352929469996        0.00000000    
  0.80503993275200059      -0.26960260641464673        0.00000000    
  0.86166108081364268      -0.20094859378681287        0.00000000    
  0.90109469338684112      -0.13282528618476896        0.00000000    
  0.92263084127868467       -6.5695368562381687E-002   0.00000000    
  0.92785062586805500       -2.6114112512875785E-003   0.00000000    
  0.91789525007982165        5.6718988949857385E-002   0.00000000    
  0.89390737322481151       0.11047147849144864        0.00000000    
  0.85793937633059303       0.15922771170211167        0.00000000    
  0.81067064323801064       0.20230753767757961        0.00000000    
  0.75433907073640549       0.24022154566987089        0.00000000    
  0.68933318847170466       0.27303552226530747        0.00000000    
  0.61770225625215103       0.30103939507315802        0.00000000    
  0.53973159802002035       0.32467226063580790        0.00000000    
  0.45714778490063102       0.34399489938444522        0.00000000    
  0.37026502469640743       0.35957613200120453        0.00000000    
  0.28047039753179442       0.37128743586139890        0.00000000    
  0.18818999058739380       0.37969464795540453        0.00000000    
   9.4501436510674094E-002  0.38451986002115318        0.00000000    
   0.0000000000000000       0.38626132689853876        0.00000000    
   0.0000000000000000       0.47961319534528729        0.00000000    
  -9.2717677812451799E-002  0.47774958221459923        0.00000000    
 -0.18478966245244138       0.47158574812443238        0.00000000    
 -0.27532003115537113       0.46156265328234836        0.00000000    
 -0.36387294899446515       0.44699762493403333        0.00000000    
 -0.44925270460947231       0.42817593097422207        0.00000000    
 -0.53119723901768767       0.40434962849013439        0.00000000    
 -0.60815505094136812       0.37560760321286196        0.00000000    
 -0.67999092011527151       0.34123868673002639        0.00000000    
 -0.74475004888174035       0.30107211636853792        0.00000000    
 -0.80233385763334153       0.25464743805143519        0.00000000    
 -0.85039006518282334       0.20147029673409345        0.00000000    
 -0.88867270205153248       0.14172463012618225        0.00000000    
 -0.91460717907745903        7.4616021871420607E-002   0.00000000    
 -0.92750093037864545        1.5613476977727545E-003   0.00000000    
 -0.92512492814569536       -7.8256243670310116E-002   0.00000000    
 -0.90606481774445002      -0.16164727163741924        0.00000000    
 -0.86957012101854048      -0.24884223084157184        0.00000000    
 -0.81358370883666897      -0.33507283433137020        0.00000000    
 -0.74013132029611839      -0.41933505213264904        0.00000000    
 -0.64712336195632880      -0.49682706228439338        0.00000000    
 -0.53963398232854354      -0.56509275237071133        0.00000000    
 -0.41643514368136014      -0.62155570952886796        0.00000000    
 -0.28408263182661653      -0.66259147277904795        0.00000000    
 -0.14310748920821587      -0.68900268755962191        0.00000000    
   9.0762888680918029E-004 -0.69666338932253891        0.00000000    
  0.14492333094021484      -0.68891462127065828        0.00000000    
  0.28585527495112972      -0.66241824724159792        0.00000000    
  0.41816775772070686      -0.62130992945331842        0.00000000    
  0.54129030841400116      -0.56478094037229831        0.00000000    
  0.64871081798727237      -0.49646921313775400        0.00000000    
  0.74162503165214966      -0.41893673836258333        0.00000000    
  0.81499413421375777      -0.33465450184196893        0.00000000    
  0.87088298360683269      -0.24840550175612380        0.00000000    
  0.90729059296593617      -0.16120840343220755        0.00000000    
  0.92625659589114306       -7.7813201243730562E-002   0.00000000    
  0.92854689012168912        1.9975466689927191E-003   0.00000000    
  0.91556447914229544        7.5049025280073650E-002   0.00000000    
  0.88954740637677820       0.14214760257269071        0.00000000    
  0.85118133769081061       0.20188686664216454        0.00000000    
  0.80304608499366048       0.25505358508080345        0.00000000    
  0.74538349229294709       0.30147088201215350        0.00000000    
  0.68054889576665889       0.34162788594926574        0.00000000    
  0.60863832930295036       0.37598975276726887        0.00000000    
  0.53160835433909670       0.40472376098097462        0.00000000    
  0.44959254020967193       0.42854425215941910        0.00000000    
  0.36414333252956232       0.44735997453152809        0.00000000    
  0.27552169015622158       0.46192109094813716        0.00000000    
  0.18492370821983281       0.47194061076053617        0.00000000    
   9.2784513616281358E-002  0.47810287522923084        0.00000000    
   0.0000000000000000       0.47996549146101841        0.00000000    
   0.0000000000000000       0.57158945969264152        0.00000000    
  -9.0594677341073487E-002  0.56908684190724845        0.00000000    
 -0.18047792480246189       0.56220488928003376        0.00000000    
 -0.26917702312793673       0.55017414724772717        0.00000000    
 -0.35569996439020329       0.53346315773616459        0.00000000    
 -0.43978959602136541       0.51118095177261491        0.00000000    
 -0.52010975890407929       0.48361047059750173        0.00000000    
 -0.59660528461303364       0.44980126238488943        0.00000000    
 -0.66751240502154519       0.40978917967886447        0.00000000    
 -0.73294871536627570       0.36271822246816948        0.00000000    
 -0.79063552794968028       0.30827311164396343        0.00000000    
 -0.84075803562264939       0.24602449356344128        0.00000000    
 -0.88049696894971907       0.17519315647095424        0.00000000    
 -0.90981796763904477        9.6404120683375144E-002   0.00000000    
 -0.92560719259356738        8.4573714934322742E-003   0.00000000    
 -0.92709747575605206       -8.6036843773973165E-002   0.00000000    
 -0.91183315235161877      -0.18818996672551155        0.00000000    
 -0.87788700972820821      -0.29273923966524418        0.00000000    
 -0.82534028581329300      -0.39970783130151416        0.00000000    
 -0.75135713614085042      -0.50213446538137452        0.00000000    
 -0.66022746439904734      -0.59816415665549694        0.00000000    
 -0.54918746803442808      -0.68228391278979506        0.00000000    
 -0.42599694037493641      -0.75075279902851599        0.00000000    
 -0.28914896196869422      -0.80259375759358798        0.00000000    
 -0.14649151406340394      -0.83263188015439027        0.00000000    
   9.2537204191779838E-004 -0.84446508787450492        0.00000000    
  0.14831712487717105      -0.83251926456942937        0.00000000    
  0.29095028733851414      -0.80237759727827684        0.00000000    
  0.42772892540397783      -0.75044058431284799        0.00000000    
  0.55085593057246784      -0.68189872495969694        0.00000000    
  0.66180018656173289      -0.59771507291120585        0.00000000    
  0.75284526232842786      -0.50164904553025036        0.00000000    
  0.82672566517318080      -0.39919057208071096        0.00000000    
  0.87918216768583568      -0.29221365309178293        0.00000000    
  0.91303006286577193      -0.18765462118714127        0.00000000    
  0.92820620131388354       -8.5507986221097010E-002   0.00000000    
  0.92662504013845148        8.9843413684733767E-003   0.00000000    
  0.91075165527109714        9.6919172805117207E-002   0.00000000    
  0.88134619187990837       0.17570114066350750        0.00000000    
  0.84152724469980822       0.24651949742084148        0.00000000    
  0.79132551175562749       0.30875909516272843        0.00000000    
  0.73356276199309478       0.36319187277534504        0.00000000    
  0.66805178327397563       0.41025363039019153        0.00000000    
  0.59707261161259229       0.45025490901448612        0.00000000    
  0.52050638412994676       0.48405597084960883        0.00000000    
  0.44011755754104559       0.51161784864853155        0.00000000    
  0.35596040883494240       0.53389390080638932        0.00000000    
  0.26937136108707399       0.55059902248521397        0.00000000    
  0.18060691345221841       0.56262627691123657        0.00000000    
   9.0659040121330553E-002  0.56950544578434203        0.00000000    
   0.0000000000000000       0.57200764355430367        0.00000000    
   0.0000000000000000       0.66081176108382722        0.00000000    
  -8.7901870335083829E-002  0.65836219667232299        0.00000000    
 -0.17527410861014606       0.65018612838887846        0.00000000    
 -0.26132851868145568       0.63694752443691249        0.00000000    
 -0.34577155587637259       0.61765686587248825        0.00000000    
 -0.42750102380130889       0.59280744957233589        0.00000000    
 -0.50646560671917529       0.56126982324349362        0.00000000    
 -0.58115597555260490       0.52332890814497968        0.00000000    
 -0.65178651290685907       0.47780029310220617        0.00000000    
 -0.71630592754669520       0.42466393428942550        0.00000000    
 -0.77519605095709809       0.36290543294959493        0.00000000    
 -0.82570036446971795       0.29202008887166298        0.00000000    
 -0.86843676256031721       0.21167398430030915        0.00000000    
 -0.89985110460255269       0.12065972277497385        0.00000000    
 -0.92020641104606515        2.0347385957300783E-002   0.00000000    
 -0.92554346778681584       -9.1098436916694905E-002   0.00000000    
 -0.91485033638207613      -0.20908475084081968        0.00000000    
 -0.88553267199453201      -0.33510719024712737        0.00000000    
 -0.83470640668470719      -0.46071180066908701        0.00000000    
 -0.76434922275851369      -0.58546976684088481        0.00000000    
 -0.67039112646002219      -0.69991556216777773        0.00000000    
 -0.56098974681919567      -0.80097282888571253        0.00000000    
 -0.43235539587772825      -0.88388770758334156        0.00000000    
 -0.29545425399658609      -0.94320692046978150        0.00000000    
 -0.14838047064272181      -0.98174889955388378        0.00000000    
   9.3336265524124112E-004 -0.99207774081777711        0.00000000    
  0.15024644411285587      -0.98161039883498435        0.00000000    
  0.29726385804418698      -0.94293599043674092        0.00000000    
  0.43411126406475042      -0.88350718635400882        0.00000000    
  0.56264887051674595      -0.80049568059467202        0.00000000    
  0.67196436633067524      -0.69937681464922685        0.00000000    
  0.76581186844824189      -0.58487882060603336        0.00000000    
  0.83607365734204608      -0.46010192593947152        0.00000000    
  0.88679474276872039      -0.33447881788890865        0.00000000    
  0.91602004311449725      -0.20846157957178521        0.00000000    
  0.92661876577000912       -9.0474811376078643E-002   0.00000000    
  0.92119510089538870        2.0957074019235276E-002   0.00000000    
  0.90075395538104674       0.12126205570983570        0.00000000    
  0.86925814104479049       0.21226062470183205        0.00000000    
  0.82644198822899650       0.29259620511726475        0.00000000    
  0.77586091114724820       0.36346629294586480        0.00000000    
  0.71689607815542478       0.42521335490050033        0.00000000    
  0.65230446106761997       0.47833584435701276        0.00000000    
  0.58160375142946474       0.52385367779011360        0.00000000    
  0.50684535102344885       0.56178293385125189        0.00000000    
  0.42781446775911336       0.59331170016849100        0.00000000    
  0.34602035584337948       0.61815241631308293        0.00000000    
  0.26151392049357186       0.63743709696844209        0.00000000    
  0.17539715884865917       0.65067051963382661        0.00000000    
   8.7963216928598126E-002  0.65884412647454349        0.00000000    
   0.0000000000000000       0.66129232841878816        0.00000000    
   0.0000000000000000       0.74747798948914945        0.00000000    
  -8.4724982968898757E-002  0.74432386976109355        0.00000000    
 -0.16885415702923978       0.73572691573246285        0.00000000    
 -0.25203190368751882       0.72063994120362651        0.00000000    
 -0.33338719590812177       0.69976382561630235        0.00000000    
 -0.41281296399626310       0.67185677148726031        0.00000000    
 -0.48907990794164569       0.63745307333561285        0.00000000    
 -0.56238074256787252       0.59513790444626868        0.00000000    
 -0.63098405726809037       0.54522619101310532        0.00000000    
 -0.69546724634988577       0.48624167926504053        0.00000000    
 -0.75337351104983041       0.41812511407112929        0.00000000    
 -0.80572704312035648       0.33965928756401464        0.00000000    
 -0.84904266728717859       0.25008784025613501        0.00000000    
 -0.88462474098536503       0.14924331056756299        0.00000000    
 -0.90772620051788999        3.5221589177315250E-002   0.00000000    
 -0.91902378490739767       -8.9336978588650473E-002   0.00000000    