 <VTKFile type="UnstructuredGrid" version="0.1" byte_order="BigEndian">
 <UnstructuredGrid>
 <Piece NumberOfPoints="        2601 " NumberOfCells="        2500 ">
 <PointData Scalars="scalars">
 <DataArray type="Float32" NumberOfComponents="3" Name="Velocity" Format="ascii">
   0.0000000000000000        0.0000000000000000        0.00000000    
  -2.3900137175540574E-002   0.0000000000000000        0.00000000    
  -4.7404897870251476E-002   0.0000000000000000        0.00000000    
  -7.0288995693812029E-002   0.0000000000000000        0.00000000    
  -9.2006217130393711E-002   0.0000000000000000        0.00000000    
 -0.11250983083818343        0.0000000000000000        0.00000000    
 -0.13113290269211042        0.0000000000000000        0.00000000    
 -0.14800567313522406        0.0000000000000000        0.00000000    
 -0.16238061087919176        0.0000000000000000        0.00000000    
 -0.17455441677655192        0.0000000000000000        0.00000000    
 -0.18374710648114673        0.0000000000000000        0.00000000    
 -0.19040363450226769        0.0000000000000000        0.00000000    
 -0.19376455354739802        0.0000000000000000        0.00000000    
 -0.19439830540815936        0.0000000000000000        0.00000000    
 -0.19161960619663979        0.0000000000000000        0.00000000    
 -0.18608998545292485        0.0000000000000000        0.00000000    
 -0.17724775325580197        0.0000000000000000        0.00000000    
 -0.16581223529436823        0.0000000000000000        0.00000000    
 -0.15138577237385889        0.0000000000000000        0.00000000    
 -0.13470603874646986        0.0000000000000000        0.00000000    
 -0.11556685182262312        0.0000000000000000        0.00000000    
  -9.4681658395522963E-002   0.0000000000000000        0.00000000    
  -7.2047719274564215E-002   0.0000000000000000        0.00000000    
  -4.8310190928319348E-002   0.0000000000000000        0.00000000    
  -2.3665698501599147E-002   0.0000000000000000        0.00000000    
   1.3519640286419757E-003   0.0000000000000000        0.00000000    
   2.6365569593974798E-002   0.0000000000000000        0.00000000    
   5.0991467762171436E-002   0.0000000000000000        0.00000000    
   7.4702395037947233E-002   0.0000000000000000        0.00000000    
   9.7295527825940253E-002   0.0000000000000000        0.00000000    
  0.11813222208055346        0.0000000000000000        0.00000000    
  0.13720934846771160        0.0000000000000000        0.00000000    
  0.15381982657766663        0.0000000000000000        0.00000000    
  0.16816439046500800        0.0000000000000000        0.00000000    
  0.17951146148924044        0.0000000000000000        0.00000000    
  0.18825374439155151        0.0000000000000000        0.00000000    
  0.19367762218015139        0.0000000000000000        0.00000000    
  0.19634038322166031        0.0000000000000000        0.00000000    
  0.19558571703899202        0.0000000000000000        0.00000000    
  0.19209510476190575        0.0000000000000000        0.00000000    
  0.18530474728928850        0.0000000000000000        0.00000000    
  0.17597092316087010        0.0000000000000000        0.00000000    
  0.16365267686734203        0.0000000000000000        0.00000000    
  0.14912748578159910        0.0000000000000000        0.00000000    
  0.13210195454017762        0.0000000000000000        0.00000000    
  0.11332179236144366        0.0000000000000000        0.00000000    
   9.2659338258794244E-002   0.0000000000000000        0.00000000    
   7.0780408936632150E-002   0.0000000000000000        0.00000000    
   4.7733571651498927E-002   0.0000000000000000        0.00000000    
   2.4064644358426021E-002   0.0000000000000000        0.00000000    
   0.0000000000000000        0.0000000000000000        0.00000000    
   0.0000000000000000        2.4012312904672463E-002   0.00000000    
  -2.3966455865907170E-002   2.3855738404848344E-002   0.00000000    
  -4.7620377968353833E-002   2.3304402617959713E-002   0.00000000    
  -7.0486004191637919E-002   2.2446779596106425E-002   0.00000000    
  -9.2427736693475676E-002   2.1213632384660529E-002   0.00000000    
 -0.11283131833926836        1.9695020897489167E-002   0.00000000    
 -0.13174124021672046        1.7839430562229478E-002   0.00000000    
 -0.14844017356044903        1.5733730789920797E-002   0.00000000    
 -0.16314629239845688        1.3348783093320894E-002   0.00000000    
 -0.17508392015635443        1.0764107659905335E-002   0.00000000    
 -0.18463018358272362        7.9763022566859756E-003   0.00000000    
 -0.19100249542064149        5.0539941560265207E-003   0.00000000    
 -0.19471511146948792        2.0209971497691806E-003   0.00000000    
 -0.19503292671691669       -1.0679740765701096E-003   0.00000000    
 -0.19257946086578240       -4.1627353713511953E-003   0.00000000    
 -0.18671979378231876       -7.2250970874270497E-003   0.00000000    
 -0.17815362521848330       -1.0181848641649774E-002   0.00000000    
 -0.16639224453455825       -1.3013595201704583E-002   0.00000000    
 -0.15217392083902967       -1.5629736913247299E-002   0.00000000    
 -0.13519092119298537       -1.8031542056999784E-002   0.00000000    
 -0.11617875972074435       -2.0118352281248166E-002   0.00000000    
  -9.5030812004413365E-002  -2.1913334956421122E-002   0.00000000    
  -7.2436066594788559E-002  -2.3313895841583408E-002   0.00000000    
  -4.8492920829680937E-002  -2.4365324632490300E-002   0.00000000    
  -2.3799646967042627E-002  -2.4970988108721590E-002   0.00000000    
   1.3521927666132864E-003  -2.5197060638520612E-002   0.00000000    
   2.6496737383124538E-002  -2.4959636025552942E-002   0.00000000    
   5.1174633368286197E-002  -2.4342704575312089E-002   0.00000000    
   7.5087979074452249E-002  -2.3280114762793319E-002   0.00000000    
   9.7645055029285485E-002  -2.1868640237724456E-002   0.00000000    
  0.11874140495260938       -2.0062950022569803E-002   0.00000000    
  0.13769451048283310       -1.7965827822034923E-002   0.00000000    
  0.15460531568682506       -1.5554001171735006E-002   0.00000000    
  0.16874456629321774       -1.2928358801034229E-002   0.00000000    
  0.18041477549871029       -1.0087466604886190E-002   0.00000000    
  0.18888360225610198       -7.1221879984630565E-003   0.00000000    
  0.19463506450283521       -4.0516966422391382E-003   0.00000000    
  0.19697494830215515       -9.4949255521154007E-004   0.00000000    
  0.19653405982431207        2.1465032109471349E-003   0.00000000    
  0.19269382777668356        5.1857973579258485E-003   0.00000000    
  0.18618586204868756        8.1139824300595943E-003   0.00000000    
  0.17650024064826766        1.0906919919910317E-002   0.00000000    
  0.16441670513299642        1.3496319023493665E-002   0.00000000    
  0.14956178975835213        1.5885244776262315E-002   0.00000000    
  0.13270899988692253        1.7994533940891597E-002   0.00000000    
  0.11364310885930391        1.9852977033906895E-002   0.00000000    
   9.3079970082929731E-002   2.1374073814433514E-002   0.00000000    
   7.0977301805131052E-002   2.2608981869371013E-002   0.00000000    
   4.7948599719749463E-002   2.3468015710249337E-002   0.00000000    
   2.4130922227646387E-002   2.4020047342836092E-002   0.00000000    
   0.0000000000000000        2.4176977553698069E-002   0.00000000    
   0.0000000000000000        4.8241792225321010E-002   0.00000000    
  -2.4249355373265058E-002   4.7843466747422111E-002   0.00000000    
  -4.8098670808446528E-002   4.6821308220285199E-002   0.00000000    
  -7.1323444202137751E-002   4.5021669906766003E-002   0.00000000    
  -9.3367155708231439E-002   4.2625582328301707E-002   0.00000000    
 -0.11418876831147570        3.9509661233228716E-002   0.00000000    
 -0.13310565403687316        3.5852993779305120E-002   0.00000000    
 -0.15025789496393516        3.1572737485527129E-002   0.00000000    
 -0.16487766529890244        2.6837061105103133E-002   0.00000000    
 -0.17727478483528888        2.1611972095056192E-002   0.00000000    
 -0.18664572184524097        1.6047033281175724E-002   0.00000000    
 -0.19345095707606608        1.0162204791250318E-002   0.00000000    
 -0.19690609110208532        4.0819310360926059E-003   0.00000000    
 -0.19759671503852955       -2.1190747886455251E-003   0.00000000    
 -0.19481336084641354       -8.3470608629705907E-003   0.00000000    
 -0.18923566658374105       -1.4476739554045539E-002   0.00000000    
 -0.18028074276103601       -2.0449905321387522E-002   0.00000000    
 -0.16868641424046432       -2.6099854904487945E-002   0.00000000    
 -0.15403872241404892       -3.1408100044789625E-002   0.00000000    
 -0.13709366875270879       -3.6179839902911452E-002   0.00000000    
 -0.11763497656525865       -4.0439515876074313E-002   0.00000000    
  -9.6393568157142173E-002  -4.3980135540809477E-002   0.00000000    
  -7.3363320538662846E-002  -4.6870696418871059E-002   0.00000000    
  -4.9205111080539314E-002  -4.8908487583638992E-002   0.00000000    
  -2.4118595570643650E-002  -5.0206222875393398E-002   0.00000000    
   1.3496209879363856E-003  -5.0580490567473699E-002   0.00000000    
   2.6813788890618424E-002  -5.0183527017052081E-002   0.00000000    
   5.1881675306100709E-002  -4.8863204326381436E-002   0.00000000    
   7.6013267522709455E-002  -4.6803161232121207E-002   0.00000000    
   9.9002655474771384E-002  -4.3890665800071144E-002   0.00000000    
  0.12019553513501947       -4.0328762085664702E-002   0.00000000    
  0.13959211105903180       -3.6048304980158555E-002   0.00000000    
  0.15646788484891472       -3.1256710659575915E-002   0.00000000    
  0.17103364164858456       -2.5929264012554121E-002   0.00000000    
  0.18253952746907626       -2.0261263574630758E-002   0.00000000    
  0.19139451017488762       -1.4270807227971020E-002   0.00000000    
  0.19686651812084968       -8.1251541904147212E-003   0.00000000    
  0.19953400942814895       -1.8820162460612168E-003   0.00000000    
  0.19872260086616761        4.3327179630195953E-003   0.00000000    
  0.19513793310589769        1.0425876892270973E-002   0.00000000    
  0.18819908494775214        1.6322111407246813E-002   0.00000000    
  0.17868726695765486        2.1897625391672511E-002   0.00000000    
  0.16614601557268383        2.7131795641884879E-002   0.00000000    
  0.15137633822999333        3.1875756447444427E-002   0.00000000    
  0.13407173155413554        3.6162814498406033E-002   0.00000000    
  0.11499818462985066        3.9825530418205982E-002   0.00000000    
   9.4018198721588897E-002   4.2946041186278240E-002   0.00000000    
   7.1813271818930963E-002   4.5346005965803279E-002   0.00000000    
   4.8426275730617946E-002   4.7148086125707991E-002   0.00000000    
   2.4413323963176706E-002   4.8172002636523471E-002   0.00000000    
   0.0000000000000000        4.8570664917460378E-002   0.00000000    
   0.0000000000000000        7.2734646252494276E-002   0.00000000    
  -2.4661786486691827E-002   7.2263089216684340E-002   0.00000000    
  -4.9007387595571737E-002   7.0597936861082636E-002   0.00000000    
  -7.2546101154680714E-002   6.8009862776080177E-002   0.00000000    
  -9.5149183822223371E-002   6.4285517982666518E-002   0.00000000    
 -0.11617616743888315        5.9699656131144932E-002   0.00000000    
 -0.13568755069035054        5.4092601858899352E-002   0.00000000    
 -0.15292953818976854        4.7728691806022766E-002   0.00000000    
 -0.16814377648653239        4.0516448953653278E-002   0.00000000    
 -0.18051000603643635        3.2697266833564019E-002   0.00000000    
 -0.19043449864649728        2.4258501149069071E-002   0.00000000    
 -0.19708521486645450        1.5408021315006829E-002   0.00000000    
 -0.20100953208742231        6.2168981393708623E-003   0.00000000    
 -0.20142215034160352       -3.1494673741222358E-003   0.00000000    
 -0.19898222101479071       -1.2538620041521798E-002   0.00000000    
 -0.19300842482972366       -2.1835339125597229E-002   0.00000000    
 -0.18423738267483200       -3.0815940577354733E-002   0.00000000    
 -0.17214207045210689       -3.9422129299121783E-002   0.00000000    
 -0.15749787823697706       -4.7376379086843945E-002   0.00000000    
 -0.13997018748578183       -5.4682974720805258E-002   0.00000000    
 -0.12033064492505899       -6.1033285650414909E-002   0.00000000    
  -9.8459023687916022E-002  -6.6498065297450532E-002   0.00000000    
  -7.5077915061596848E-002  -7.0762793072453672E-002   0.00000000    
  -5.0285564415818093E-002  -7.3965621225564479E-002   0.00000000    
  -2.4709259504753854E-002  -7.5810579990549354E-002   0.00000000    
   1.3474659418758366E-003  -7.6499745801000898E-002   0.00000000    
   2.7396852153947045E-002  -7.5776496241629826E-002   0.00000000    
   5.2957769605400107E-002  -7.3897709299449527E-002   0.00000000    
   7.7720228555416784E-002  -7.0661377611631881E-002   0.00000000    
  0.10106361797531607       -6.6363896947103276E-002   0.00000000    
  0.12288352703021513       -6.0866989528422365E-002   0.00000000    
  0.14246395433910258       -5.4485750598283290E-002   0.00000000    
  0.15991935291875350       -4.7149106842092808E-002   0.00000000    
  0.17448444629360560       -3.9166387378677080E-002   0.00000000    
  0.18648855409119588       -3.0532802712656331E-002   0.00000000    
  0.19516231120184682       -2.1526676730729347E-002   0.00000000    
  0.20102798307630768       -1.2205632784646222E-002   0.00000000    
  0.20335451507813940       -2.7942291763238536E-003   0.00000000    
  0.20281905869712538        6.5931281933650334E-003   0.00000000    
  0.19876747397332334        1.5803051559417674E-002   0.00000000    
  0.19198152124487042        2.4671070601091274E-002   0.00000000    
  0.18191820187615579        3.3125136579492710E-002   0.00000000    
  0.16940667291581180        4.0958398336739033E-002   0.00000000    
  0.15404435206192602        4.8182485525458174E-002   0.00000000    
  0.13664929596669767        5.4557082204165726E-002   0.00000000    
  0.11698281958912300        6.0172620055835672E-002   0.00000000    
   9.5797215830076249E-002   6.4765875589290631E-002   0.00000000    
   7.3034197719385421E-002   6.8495450968352065E-002   0.00000000    
   4.9333448638665192E-002   7.1087720891716930E-002   0.00000000    
   2.4825165559621113E-002   7.2754937325819988E-002   0.00000000    
   0.0000000000000000        7.3227554430276676E-002   0.00000000    
   0.0000000000000000        9.7878340059513111E-002   0.00000000    
  -2.5290062295209140E-002   9.7072517044774154E-002   0.00000000    
  -5.0166433243644760E-002   9.5011753951693673E-002   0.00000000    
  -7.4407654754574240E-002   9.1377253446233292E-002   0.00000000    
  -9.7426196607422202E-002   8.6541024547123868E-002   0.00000000    
 -0.11919906155891644        8.0245270517932940E-002   0.00000000    
 -0.13899595498050063        7.2856536564116198E-002   0.00000000    
 -0.15698760828666528        6.4199669853643934E-002   0.00000000    
 -0.17234421014698656        5.4617583054225108E-002   0.00000000    
 -0.18541611849931361        4.4035542042685782E-002   0.00000000    
 -0.19532758500802760        3.2757456512952199E-002   0.00000000    
 -0.20258679912914160        2.0820267086665050E-002   0.00000000    
 -0.20633259623067690        8.4760375294553585E-003   0.00000000    
 -0.20720300199564523       -4.1243126006821808E-003   0.00000000    
 -0.20441399153278575       -1.6791444421406402E-002   0.00000000    
 -0.19870032933841753       -2.9268703628192356E-002   0.00000000    
 -0.18941371600661999       -4.1438962033869327E-002   0.00000000    
 -0.17734810866604225       -5.2958758512428414E-002   0.00000000    
 -0.16203930234981512       -6.3791479489493555E-002   0.00000000    
 -0.14429882495475446       -7.3534774090370444E-002   0.00000000    
 -0.12387938887589520       -8.2239196532055470E-002   0.00000000    
 -0.10156489541226557       -8.9477001142033274E-002   0.00000000    
  -7.7338963978536582E-002  -9.5389629304565529E-002   0.00000000    
  -5.1910262493080485E-002  -9.9558569400965219E-002   0.00000000    
  -2.5487909710733281E-002 -0.10221502177947872        0.00000000    
   1.3423674246766544E-003 -0.10298103895372500        0.00000000    
   2.8168621333698421E-002 -0.10216957556642862        0.00000000    
   5.4572239457905083E-002  -9.9467897818790063E-002   0.00000000    
   7.9974274611444185E-002  -9.5254415463377845E-002   0.00000000    
  0.10415918455437982       -8.9297890466822613E-002   0.00000000    
  0.12642505998070394       -8.2017512501228879E-002   0.00000000    
  0.14678221184965029       -7.3271538401489131E-002   0.00000000    
  0.16445333744981999       -6.3488574825376620E-002   0.00000000    
  0.17968010257458908       -5.2617508960986450E-002   0.00000000    
  0.19165728375666999       -4.1061701192450895E-002   0.00000000    
  0.20084398658532976       -2.8856968639192331E-002   0.00000000    
  0.20645214103402146       -1.6347897673921013E-002   0.00000000    
  0.20912552606426077       -3.6506111079850981E-003   0.00000000    
  0.20813473962364837        8.9770231233749220E-003   0.00000000    
  0.20425990646376438        2.1346845384195880E-002   0.00000000    
  0.19686775109312848        3.3306655705571273E-002   0.00000000    
  0.18681618907311517        4.4605704353257995E-002   0.00000000    
  0.17360110229034498        5.5205717752027247E-002   0.00000000    
  0.15809566461055233        6.4804196673098308E-002   0.00000000    
  0.13995286501970230        7.3474498730510762E-002   0.00000000    
  0.12000063445546531        8.0875182930653003E-002   0.00000000    
   9.8070836307198775E-002   8.7179987047082186E-002   0.00000000    
   7.4892597432269503E-002   9.2023869252434373E-002   0.00000000    
   5.0490745257490283E-002   9.5663176596982771E-002   0.00000000    
   2.5452371772479380E-002   9.7727411089031768E-002   0.00000000    
   0.0000000000000000        9.8533890895774343E-002   0.00000000    
   0.0000000000000000       0.12353576877995490        0.00000000    
  -2.6037900894941284E-002  0.12274426267103825        0.00000000    
  -5.1753376479045113E-002  0.11993306591176758        0.00000000    
  -7.6626120457802233E-002  0.11557111807104212        0.00000000    
 -0.10054278571350952       0.10928357782393351        0.00000000    
 -0.12280982517640700       0.10154383252750994        0.00000000    
 -0.14352188215663972        9.2068135344970270E-002   0.00000000    
 -0.16185053953082301        8.1309592250968690E-002   0.00000000    
 -0.17808675376915972        6.9101686618005545E-002   0.00000000    
 -0.19131838402583309        5.5856187080128301E-002   0.00000000    
 -0.20201236577929599        4.1543468981387180E-002   0.00000000    
 -0.20923418751793241        2.6516499861042504E-002   0.00000000    
 -0.21359963818872413        1.0892261095149116E-002   0.00000000    
 -0.21421899328527988       -5.0495665989990900E-003   0.00000000    
 -0.21182448043274313       -2.1048505863678475E-002   0.00000000    
 -0.20563803454084922       -3.6910542269937112E-002   0.00000000    
 -0.19647154653880741       -5.2249017517927411E-002   0.00000000    
 -0.18371810527094778       -6.6966544319067678E-002   0.00000000    
 -0.16822848466283447       -8.0580913996239872E-002   0.00000000    
 -0.14961218164665813       -9.3100913296280785E-002   0.00000000    
 -0.12871415704433548      -0.10398931188291338        0.00000000    
 -0.10538618026551851      -0.11336814984556200        0.00000000    
  -8.0419196259054401E-002 -0.12069019025795959        0.00000000    
  -5.3911494606676220E-002 -0.12619320576272322        0.00000000    
  -2.6549719593339707E-002 -0.12936330760023926        0.00000000    
   1.3375621225255345E-003 -0.13054910635551670        0.00000000    
   2.9217414699749339E-002 -0.12930640902302987        0.00000000    
   5.6563782911319319E-002 -0.12607984507822412        0.00000000    
   8.3041406414362320E-002 -0.12052092103299181        0.00000000    
  0.10797057053028181      -0.11314425316063641        0.00000000    
  0.13124660371496713      -0.10371185221988291        0.00000000    
  0.15208539463583542       -9.2771935330724406E-002   0.00000000    
  0.17062921092987204       -8.0201913075853087E-002   0.00000000    
  0.18603968596024084       -6.6540204232148667E-002   0.00000000    
  0.19870186439672599       -5.1777158201062504E-002   0.00000000    
  0.20777119278963077       -3.6396335616936185E-002   0.00000000    
  0.21384969276056265       -2.0493977087746394E-002   0.00000000    
  0.21613120131634478       -4.4582173740462961E-003   0.00000000    
  0.21538950915062888        1.1518316731729258E-002   0.00000000    
  0.21089752457325478        2.7173578115796855E-002   0.00000000    
  0.20354134551400169        4.2229466820822507E-002   0.00000000    
  0.19270965004324367        5.6567360010485616E-002   0.00000000    
  0.17933399497890837        6.9836013971258923E-002   0.00000000    
  0.16295118884217488        8.2063354173298103E-002   0.00000000    
  0.14447110817852113        9.2839432022413793E-002   0.00000000    
  0.12360578391839591       0.10232901489401242        0.00000000    
  0.10118207689501320       0.11008087116915520        0.00000000    
   7.7107558170193519E-002  0.11637695356665080        0.00000000    
   5.2074943639872875E-002  0.12074577012623876        0.00000000    
   2.6199018597363909E-002  0.12356032718511785        0.00000000    
   0.0000000000000000       0.12435357637001018        0.00000000    
   0.0000000000000000       0.15027461131268580        0.00000000    
  -2.6999180389063206E-002  0.14904365086101784        0.00000000    
  -5.3563091584095730E-002  0.14591421397384680        0.00000000    
  -7.9477707525930946E-002  0.14037847916210969        0.00000000    
 -0.10410354603321820       0.13301986982811723        0.00000000    
 -0.12745093960542847       0.12342312242431509        0.00000000    
 -0.14870821858757557       0.11215933043309510        0.00000000    
 -0.16810104935059544        9.8941033658275362E-002   0.00000000    
 -0.18469260872305954        8.4299167380212689E-002   0.00000000    
 -0.19890489543416903        6.8103771022545945E-002   0.00000000    
 -0.20973644547555942        5.0822564798662616E-002   0.00000000    
 -0.21777887457507181        3.2502801917943032E-002   0.00000000    
 -0.22203653191178643        1.3530214319694200E-002   0.00000000    
 -0.22323824401330133       -5.8653063293695089E-003   0.00000000    
 -0.22046880816628750       -2.5395568305853686E-002   0.00000000    
 -0.21455759522056644       -4.4659993103582825E-002   0.00000000    
 -0.20474103814576097       -6.3481465989959948E-002   0.00000000    
 -0.19190874439359962       -8.1318685987141592E-002   0.00000000    
 -0.17550814423541597       -9.8117848037651709E-002   0.00000000    
 -0.15644504023916497      -0.11324224197091377        0.00000000    
 -0.13441803896502216      -0.12677186465101278        0.00000000    
 -0.11030107429021883      -0.13802939467840122        0.00000000    
  -8.4060426355055118E-002 -0.14723543341997114        0.00000000    
  -5.6486434594596846E-002 -0.15372851243142041        0.00000000    
  -2.7805372187013715E-002 -0.15786969472094495        0.00000000    
   1.3295219613919367E-003 -0.15906375159265673        0.00000000    
   3.0460436674841454E-002 -0.15780138756583986        0.00000000    
   5.9122584242074040E-002 -0.15359223868113794        0.00000000    
   8.6669826717306511E-002 -0.14703224981615043        0.00000000    
  0.11286917847557780      -0.13776029629750153        0.00000000    
  0.13693737520065286      -0.12643889512443676        0.00000000    
  0.15890181025977246      -0.11284697395935048        0.00000000    
  0.17789544566014692       -9.7663181824306569E-002   0.00000000    
  0.19421383399875758       -8.0806653777353840E-002   0.00000000    
  0.20695774282164645       -6.2915651009464613E-002   0.00000000    
  0.21667446138339067       -4.4042743968416148E-002   0.00000000    
  0.22248049397819608       -2.4730955709916309E-002   0.00000000    
  0.22513474060508218       -5.1558473792819659E-003   0.00000000    
  0.22381337144258531        1.4280154395491962E-002   0.00000000    
  0.21942757048447487        3.3290673293878512E-002   0.00000000    
  0.21125339248748212        5.1643875772569521E-002   0.00000000    
  0.20028314226788646        6.8956044749966638E-002   0.00000000    
  0.18592936206311639        8.5177912278021461E-002   0.00000000    
  0.16919085950800941        9.9843913156149683E-002   0.00000000    
  0.14964902992325016       0.11308193168861246        0.00000000    
  0.12823874544718711       0.12436327302802393        0.00000000    
  0.10473694917652869       0.13397326523894582        0.00000000    
   7.9954080984759465E-002  0.14134309578895632        0.00000000    
   5.3881627885370334E-002  0.14688584481089856        0.00000000    
   2.7158580363194053E-002  0.15002037458245068        0.00000000    
   0.0000000000000000       0.15125227741681083        0.00000000    
   0.0000000000000000       0.17774883153827573        0.00000000    
  -2.8061225065282538E-002  0.17663092393262989        0.00000000    
  -5.5793414810471051E-002  0.17262412954407030        0.00000000    
  -8.2632630378925820E-002  0.16642348289925879        0.00000000    
 -0.10849295495305925       0.15746211655413050        0.00000000    
 -0.13259964680249758       0.14643604868470397        0.00000000    
 -0.15510406444611999       0.13290918769858162        0.00000000    
 -0.17506164002510660       0.11754266989041649        0.00000000    
 -0.19284345439415548       0.10007199117133073        0.00000000    
 -0.20739263265699412        8.1093498794553395E-002   0.00000000    
 -0.21927333909141306        6.0546179061938508E-002   0.00000000    
 -0.22738814392651907        3.8937507484182503E-002   0.00000000    
 -0.23246116342207665        1.6427270358916508E-002   0.00000000    
 -0.23343550783141576       -6.5852207457924583E-003   0.00000000    
 -0.23115775441572178       -2.9721759183463280E-002   0.00000000    
 -0.22469436765302850       -5.2707317646410325E-002   0.00000000    
 -0.21497375994408532       -7.4970223035224284E-002   0.00000000    
 -0.20126067171500164       -9.6374227446408597E-002   0.00000000    
 -0.18452169281743275      -0.11620080312912823        0.00000000    
 -0.16427709042763808      -0.13446591053127169        0.00000000    
 -0.14148419999323225      -0.15036700585405130        0.00000000    
 -0.11595093317065799      -0.16408340285865944        0.00000000    
  -8.8573424873410037E-002 -0.17479849991423399        0.00000000    
  -5.9451198203437736E-002 -0.18286058270530312        0.00000000    
  -2.9363163308644510E-002 -0.18750564037525472        0.00000000    
   1.3215640626582821E-003 -0.18924634604567792        0.00000000    
   3.1998723011007917E-002 -0.18742578536411930        0.00000000    
   6.2071322682900651E-002 -0.18270150673993291        0.00000000    
   9.1163184616927531E-002 -0.17456100450018550        0.00000000    
  0.11850272012403214      -0.16376934730725148        0.00000000    
  0.14398369043254930      -0.14997792902411511        0.00000000    
  0.16671717051668605      -0.13400477323850740        0.00000000    
  0.18688899696714803      -0.11566976164595398        0.00000000    
  0.20354877230764470       -9.5777155105333439E-002   0.00000000    
  0.21717053007539930       -7.4309732774164014E-002   0.00000000    
  0.22679419886967112       -5.1987966334854183E-002   0.00000000    
  0.23314995378494624       -2.8946436539302109E-002   0.00000000    
  0.23531535293439676       -5.7589283241057240E-003   0.00000000    
  0.23421950151060369        1.7301541069380512E-002   0.00000000    
  0.22902114201659579        3.9854531882406251E-002   0.00000000    
  0.22077341236111120        6.1503010766255833E-002   0.00000000    
  0.20875679017082899        8.2084867765786648E-002   0.00000000    
  0.19406564623459061       0.10109510003065340        0.00000000    
  0.17613963609558234       0.11859232442194431        0.00000000    
  0.15603328126328320       0.13398279203657468        0.00000000    
  0.13337852082504612       0.14752854453879410        0.00000000    
  0.10911828813628799       0.15857111029559934        0.00000000    
   8.3103437275827169E-002  0.16754405721170459        0.00000000    
   5.6107809973340826E-002  0.17375405163189064        0.00000000    
   2.8218733993451386E-002  0.17776537901101225        0.00000000    
   0.0000000000000000       0.17888567523340812        0.00000000    
   0.0000000000000000       0.20672674068702798        0.00000000    
  -2.9330763013604079E-002  0.20504602906102035        0.00000000    
  -5.8198659704643420E-002  0.20081013711344758        0.00000000    
  -8.6405184273079735E-002  0.19328424140371325        0.00000000    
 -0.11323770046981996       0.18329522494216025        0.00000000    
 -0.13876029282171720       0.17023324998959957        0.00000000    
 -0.16204339806200307       0.15490053506019097        0.00000000    
 -0.18339804703970541       0.13686457197022012        0.00000000    
 -0.20172974786499862       0.11686462954449389        0.00000000    
 -0.21756985437749099        9.4691169343911100E-002   0.00000000    
 -0.22972930541836498        7.0989690562406005E-002   0.00000000    
 -0.23892528471566463        4.5805803433957591E-002   0.00000000    
 -0.24395944948607998        1.9667182441390811E-002   0.00000000    
 -0.24569538934478938       -7.1138261174279989E-003   0.00000000    
 -0.24301885705496426       -3.4146416636786199E-002   0.00000000    
 -0.23689765750785227       -6.0866224928879789E-002   0.00000000    