 <VTKFile type="UnstructuredGrid" version="0.1" byte_order="BigEndian">
 <UnstructuredGrid>
 <Piece NumberOfPoints="        2601 " NumberOfCells="        2500 ">
 <PointData Scalars="scalars">
 <DataArray type="Float32" NumberOfComponents="3" Name="Velocity" Format="ascii">
   0.0000000000000000        0.0000000000000000        0.00000000    
  -8.8411599628936507E-002   0.0000000000000000        0.00000000    
 -0.17660689640071767        0.0000000000000000        0.00000000    
 -0.26580241981749314        0.0000000000000000        0.00000000    
 -0.35430282765025384        0.0000000000000000        0.00000000    
 -0.44491414873364782        0.0000000000000000        0.00000000    
 -0.53420390758036418        0.0000000000000000        0.00000000    
 -0.62696399238474210        0.0000000000000000        0.00000000    
 -0.71749350422568214        0.0000000000000000        0.00000000    
 -0.81328366033510480        0.0000000000000000        0.00000000    
 -0.90542675883678558        0.0000000000000000        0.00000000    
  -1.0052117736951525        0.0000000000000000        0.00000000    
  -1.0989326722808488        0.0000000000000000        0.00000000    
  -1.2029032529619075        0.0000000000000000        0.00000000    
  -1.2959936933018046        0.0000000000000000        0.00000000    
  -1.3986499464069555        0.0000000000000000        0.00000000    
  -1.4787780071588219        0.0000000000000000        0.00000000    
  -1.5461679824878338        0.0000000000000000        0.00000000    
  -1.5667261160469514        0.0000000000000000        0.00000000    
  -1.5186965228625346        0.0000000000000000        0.00000000    
  -1.4096255783282525        0.0000000000000000        0.00000000    
  -1.1981847863879156        0.0000000000000000        0.00000000    
 -0.95463403992015983        0.0000000000000000        0.00000000    
 -0.64133968335238634        0.0000000000000000        0.00000000    
 -0.32992791135919575        0.0000000000000000        0.00000000    
   1.4159147505836841E-003   0.0000000000000000        0.00000000    
  0.33222599459268271        0.0000000000000000        0.00000000    
  0.64388113709651629        0.0000000000000000        0.00000000    
  0.95633945093899075        0.0000000000000000        0.00000000    
   1.1998354304511689        0.0000000000000000        0.00000000    
   1.4104437638593377        0.0000000000000000        0.00000000    
   1.5193539601207275        0.0000000000000000        0.00000000    
   1.5670740705998389        0.0000000000000000        0.00000000    
   1.5464311336596441        0.0000000000000000        0.00000000    
   1.4791899292965702        0.0000000000000000        0.00000000    
   1.3989808156612418        0.0000000000000000        0.00000000    
   1.2965405120182942        0.0000000000000000        0.00000000    
   1.2033329307933045        0.0000000000000000        0.00000000    
   1.0995007006636592        0.0000000000000000        0.00000000    
   1.0056576755498665        0.0000000000000000        0.00000000    
  0.90594544991443304        0.0000000000000000        0.00000000    
  0.81368965427993412        0.0000000000000000        0.00000000    
  0.71792822137416668        0.0000000000000000        0.00000000    
  0.62729906386598333        0.0000000000000000        0.00000000    
  0.53453811249184313        0.0000000000000000        0.00000000    
  0.44516170518219611        0.0000000000000000        0.00000000    
  0.35452859731562286        0.0000000000000000        0.00000000    
  0.26595373564126434        0.0000000000000000        0.00000000    
  0.17672051876293010        0.0000000000000000        0.00000000    
   8.8462457053540750E-002   0.0000000000000000        0.00000000    
   0.0000000000000000        0.0000000000000000        0.00000000    
   0.0000000000000000        8.7814405161721287E-002   0.00000000    
  -8.7455024244315518E-002   8.8053746263897184E-002   0.00000000    
 -0.17537995744304824        8.8068010916962799E-002   0.00000000    
 -0.26283664558755176        8.8585727384452265E-002   0.00000000    
 -0.35175035380450831        8.8829914343106942E-002   0.00000000    
 -0.43962590195764895        8.9658479587576168E-002   0.00000000    
 -0.53009956471879427        9.0106464813894518E-002   0.00000000    
 -0.61873907089017444        9.1294647359475095E-002   0.00000000    
 -0.71141174243992911        9.1909054258316164E-002   0.00000000    
 -0.80104205791741945        9.3512933160306164E-002   0.00000000    
 -0.89660156996466833        9.4191188764711387E-002   0.00000000    
 -0.98715228369391617        9.6146047651100838E-002   0.00000000    
  -1.0860239956739373        9.6448064064374339E-002   0.00000000    
  -1.1763560617774940        9.7856078459991933E-002   0.00000000    
  -1.2769162953961590        9.5796081023321530E-002   0.00000000    
  -1.3616245796017057        9.1569932987715014E-002   0.00000000    
  -1.4518866134403836        7.8821622419620582E-002   0.00000000    
  -1.5093654102537724        4.6048594785435548E-002   0.00000000    
  -1.5336120513261637       -1.2423975164838148E-003   0.00000000    
  -1.4987914883489739       -8.1606361807231090E-002   0.00000000    
  -1.3678399658555482      -0.15841473284159799        0.00000000    
  -1.1867126023237047      -0.23415208106065047        0.00000000    
 -0.91067166486580287      -0.28543827998193594        0.00000000    
 -0.63057893706018797      -0.30794750501305213        0.00000000    
 -0.31047331621207724      -0.32356859749819028        0.00000000    
   1.1515668333235459E-003 -0.31939882962250338        0.00000000    
  0.31317239975257904      -0.32343080100550564        0.00000000    
  0.63261885484137692      -0.30766950625009043        0.00000000    
  0.91284553502947607      -0.28501418820747626        0.00000000    
   1.1879563965696165      -0.23359132988526921        0.00000000    
   1.3689552457314564      -0.15801451091304275        0.00000000    
   1.4992868689194296       -8.1225936066702586E-002   0.00000000    
   1.5339894079595902       -1.1953165088878321E-003   0.00000000    
   1.5097595573594131        4.6069526746778583E-002   0.00000000    
   1.4521987224453121        7.8733957594641982E-002   0.00000000    
   1.3621695545977914        9.1505784725903649E-002   0.00000000    
   1.2773383876048603        9.5767162565955050E-002   0.00000000    
   1.1769471950244552        9.7833096759950167E-002   0.00000000    
   1.0864850034554159        9.6462820626355236E-002   0.00000000    
  0.98770975215064916        9.6156956925206122E-002   0.00000000    
  0.89703835052967873        9.4228178109391866E-002   0.00000000    
  0.80152418063950881        9.3543298768260300E-002   0.00000000    
  0.71178704677114435        9.1956783791621838E-002   0.00000000    
  0.61912536452151934        9.1335574166674205E-002   0.00000000    
  0.53039287195660412        9.0159390927920385E-002   0.00000000    
  0.43990633870926849        8.9705072393838070E-002   0.00000000    
  0.35195055518654356        8.8885343650811743E-002   0.00000000    
  0.26300635492218188        8.8635243935198782E-002   0.00000000    
  0.17548128839402599        8.8124566175288646E-002   0.00000000    
   8.7511804113560979E-002   8.8104506992727399E-002   0.00000000    
   0.0000000000000000        8.7871281692755904E-002   0.00000000    
   0.0000000000000000       0.17443322446920859        0.00000000    
  -8.5311506526791467E-002  0.17420292363628750        0.00000000    
 -0.17036169372709872       0.17489541973434747        0.00000000    
 -0.25622217932387731       0.17507695720121330        0.00000000    
 -0.34123996600537460       0.17627164395917302        0.00000000    
 -0.42793962591104950       0.17679342066729797        0.00000000    
 -0.51302415497384690       0.17853117758163781        0.00000000    
 -0.60079661997867739       0.17928336466639871        0.00000000    
 -0.68580572385773741       0.18160357037917876        0.00000000    
 -0.77473386135816269       0.18237832325071984        0.00000000    
 -0.85906808576065452       0.18522098710147333        0.00000000    
 -0.94885927833266093       0.18545960047942961        0.00000000    
  -1.0309610595438383       0.18810944748950401        0.00000000    
  -1.1203044753518510       0.18587160936643338        0.00000000    
  -1.1963973592611703       0.18443509711985293        0.00000000    
  -1.2812086452039912       0.17245190053121515        0.00000000    
  -1.3423591154048398       0.14935356615322579        0.00000000    
  -1.4115644026639060       0.10220211938954613        0.00000000    
  -1.4350644016216625       -9.6479162788865765E-003   0.00000000    
  -1.3994115917062449      -0.14367287530072112        0.00000000    
  -1.2973630525121287      -0.32934697825921222        0.00000000    
  -1.0720297772272398      -0.46967918773604012        0.00000000    
 -0.83897812193850285      -0.55900252155908992        0.00000000    
 -0.54342697320823430      -0.61002589985880507        0.00000000    
 -0.27609023705576424      -0.60893134359389578        0.00000000    
   1.2222433217315266E-003 -0.62297223090256171        0.00000000    
  0.27812349568750422      -0.60877826914230682        0.00000000    
  0.54587080966286716      -0.60951459080997095        0.00000000    
  0.84063552240340089      -0.55815925654985488        0.00000000    
   1.0737917785079609      -0.46871213430690556        0.00000000    
   1.2981285701005891      -0.32822806052589271        0.00000000    
   1.4000572506158699      -0.14327138712745399        0.00000000    
   1.4355426537198752       -9.3364668964353078E-003   0.00000000    
   1.4119464981810537       0.10203804910401312        0.00000000    
   1.3430368358007447       0.14923731687085226        0.00000000    
   1.2817004182037552       0.17236941803803768        0.00000000    
   1.1970703068093915       0.18436622118538759        0.00000000    
   1.1208142165026667       0.18588275040228355        0.00000000    
   1.0315781534550676       0.18811285404757969        0.00000000    
  0.94933876689200880       0.18552300434689581        0.00000000    
  0.85960354696718566       0.18527019710552220        0.00000000    
  0.77515248836998218       0.18246796016395947        0.00000000    
  0.68624462191784474       0.18167857594513673        0.00000000    
  0.60113555300527488       0.17938599111318279        0.00000000    
  0.51335810721987030       0.17862037121643357        0.00000000    
  0.42818772633964913       0.17690246820469882        0.00000000    
  0.34146444860473002       0.17636847171385781        0.00000000    
  0.25637314709914466       0.17518908213237802        0.00000000    
  0.17047441168798802       0.17499599478371999        0.00000000    
   8.5362152861743160E-002  0.17431628724401918        0.00000000    
   0.0000000000000000       0.17453492429349057        0.00000000    
   0.0000000000000000       0.25736522260428191        0.00000000    
  -8.1411065824899695E-002  0.25799490255502139        0.00000000    
 -0.16311740020788465       0.25786136656916031        0.00000000    
 -0.24418384742968888       0.25903934735330553        0.00000000    
 -0.32614008047244636       0.25928467604434730        0.00000000    
 -0.40666886528234769       0.26101023583258642        0.00000000    
 -0.48869147408324592       0.26142289984347122        0.00000000    
 -0.56816061723222255       0.26363465022581473        0.00000000    
 -0.64973330105340898       0.26383546752970227        0.00000000    
 -0.72699086655821465       0.26633352440454905        0.00000000    
 -0.80694324792059968       0.26555378003308705        0.00000000    
 -0.87966628160426630       0.26764242275420075        0.00000000    
 -0.95562734815062933       0.26399085158120461        0.00000000    
  -1.0193546189179403       0.26306227158043699        0.00000000    
  -1.0871037608895917       0.25108782518338485        0.00000000    
  -1.1339133733767774       0.23742143662717324        0.00000000    
  -1.1888924799783296       0.20051495008821565        0.00000000    
  -1.2077611060610625       0.13911599025419563        0.00000000    
  -1.2596765180123750        2.8854934143791044E-002   0.00000000    
  -1.2419787008127265      -0.23552507295061026        0.00000000    
  -1.0991228732254319      -0.48239789023845075        0.00000000    
 -0.92370837218806678      -0.71737485926898947        0.00000000    
 -0.63127425158239026      -0.83679143143986578        0.00000000    
 -0.42047554351287192      -0.83858570255983977        0.00000000    
 -0.20401177330098735      -0.86417089449912621        0.00000000    
   7.6059754982470162E-004 -0.84981639262000974        0.00000000    
  0.20590984227550749      -0.86398346554927929        0.00000000    
  0.42214110725019921      -0.83828682085752848        0.00000000    
  0.63365626695272526      -0.83566575414883071        0.00000000    
  0.92490610304564413      -0.71561053459205015        0.00000000    
   1.1004279539858923      -0.48118710939210702        0.00000000    
   1.2425513619631536      -0.23436316961640727        0.00000000    
   1.2601767382437852        2.8645816229594234E-002   0.00000000    
   1.2088204576633852       0.13900951257616281        0.00000000    
   1.1895798037328427       0.20041751100266750        0.00000000    
   1.1347866844370094       0.23732010414101146        0.00000000    
   1.0877296538663708       0.25110404260941066        0.00000000    
   1.0200781685090297       0.26305386911924056        0.00000000    
  0.95617780020743837       0.26407954627276264        0.00000000    
  0.88027142820355608       0.26770344934590379        0.00000000    
  0.80741531567306968       0.26568247340341528        0.00000000    
  0.72748665401952561       0.26643679246168445        0.00000000    
  0.65012040179652131       0.26398525753483842        0.00000000    
  0.56854787978824584       0.26376229546083391        0.00000000    
  0.48898715486387978       0.26158363717629241        0.00000000    
  0.40694653980244516       0.26115159774353081        0.00000000    
  0.32633960320122241       0.25945095898980813        0.00000000    
  0.24435087744995293       0.25918802460923318        0.00000000    
  0.16321784404615777       0.25803022524493674        0.00000000    
   8.1466811406094616E-002  0.25814675239290197        0.00000000    
   0.0000000000000000       0.25753482807899963        0.00000000    
   0.0000000000000000       0.33692314509785554        0.00000000    
  -7.6534325765880762E-002  0.33638371515165733        0.00000000    
 -0.15269855870208712       0.33734446490124470        0.00000000    
 -0.22918035996525762       0.33710583988615039        0.00000000    
 -0.30446789951745440       0.33846329884510873        0.00000000    
 -0.38033539089975943       0.33822922936628835        0.00000000    
 -0.45390706092548122       0.33979952597938845        0.00000000    
 -0.52818571582335427       0.33900715871276632        0.00000000    
 -0.59850923957838442       0.34036050442324534        0.00000000    
 -0.66939720654784274       0.33795535131620352        0.00000000    
 -0.73364862686014809       0.33813708821192723        0.00000000    
 -0.79785087138669797       0.33198571663971044        0.00000000    
 -0.85089740244537360       0.32865648264808311        0.00000000    
 -0.90270269054552854       0.31393051267877797        0.00000000    
 -0.93552674451123352       0.30079409905932697        0.00000000    
 -0.96653338083814200       0.26553270994216188        0.00000000    
 -0.96436786079413173       0.22521857049920938        0.00000000    
 -0.96954289976635011       0.13845731167858050        0.00000000    
 -0.90897972627092205        2.0867136789074866E-002   0.00000000    
 -0.94584983811570478      -0.20836374112013203        0.00000000    
 -0.86691349428023201      -0.73135022814206230        0.00000000    
 -0.50526842854215004       -1.0054809267227589        0.00000000    
 -0.35689444970520262      -0.98949240480862855        0.00000000    
 -0.22812036638121191       -1.0254564309165983        0.00000000    
 -0.11378731937116898       -1.0080959256657089        0.00000000    
   4.4581144023692537E-004  -1.0248957979113755        0.00000000    
  0.11450810959717382       -1.0081145383438976        0.00000000    
  0.22929913210968070       -1.0251769773008526        0.00000000    
  0.35827521357296932      -0.98926574958039803        0.00000000    
  0.50830213948353586       -1.0032862414752961        0.00000000    
  0.86755219255776594      -0.72828214530715663        0.00000000    
  0.94665384625474602      -0.20849202944855369        0.00000000    
  0.91095710731754775        2.0847278635782437E-002   0.00000000    
  0.97060973003784923       0.13851299332953546        0.00000000    
  0.96561193186646666       0.22515375931467077        0.00000000    
  0.96736597704040561       0.26562423684937814        0.00000000    
  0.93642343958961893       0.30080077644356779        0.00000000    
  0.90336554039605943       0.31406783866702237        0.00000000    
  0.85159750466262829       0.32873529415536684        0.00000000    
  0.79839317793203901       0.33215972738880967        0.00000000    
  0.73420921492693059       0.33826759481079288        0.00000000    
  0.66983792062778558       0.33815296030278380        0.00000000    
  0.59895066336110536       0.34052393054747415        0.00000000    
  0.52852956572659493       0.33921857980205561        0.00000000    
  0.45423617506999781       0.33998280500459943        0.00000000    
  0.38058227303020203       0.33844828778669384        0.00000000    
  0.30468685669355133       0.33865796202312975        0.00000000    
  0.22932911524415525       0.33732883145880538        0.00000000    
  0.15280796692144322       0.33754494248449862        0.00000000    
   7.6584022542527538E-002  0.33660835573928138        0.00000000    
   0.0000000000000000       0.33712540215076120        0.00000000    
   0.0000000000000000       0.40968611909769165        0.00000000    
  -7.0319359429594996E-002  0.41047570924253052        0.00000000    
 -0.14065303884713670       0.40975166539423147        0.00000000    
 -0.21010502395085345       0.41063370843249442        0.00000000    
 -0.27954436150974948       0.40966358801629621        0.00000000    
 -0.34702755315012229       0.41038090479673406        0.00000000    
 -0.41428354914521848       0.40847679445591095        0.00000000    
 -0.47806502787822786       0.40839130345783858        0.00000000    
 -0.54101859287215115       0.40425472227193288        0.00000000    
 -0.59814605101770313       0.40207783524236229        0.00000000    
 -0.65314365866920787       0.39326490039824497        0.00000000    
 -0.69847516910094731       0.38639293216523196        0.00000000    
 -0.73923896413551249       0.36806085355416923        0.00000000    
 -0.76385607659883803       0.35094981029092992        0.00000000    
 -0.78005010257634788       0.31279413123753802        0.00000000    
 -0.76865247408681237       0.27314294833441460        0.00000000    
 -0.74461865764787849       0.19141023165908999        0.00000000    
 -0.66897177260028740       0.10179506319668254        0.00000000    
 -0.58258935928640909       -8.9414984058515778E-002   0.00000000    
 -0.35484595173823885      -0.28895365361983355        0.00000000    
  -3.4946564085520916E-002  -1.0495948728184026        0.00000000    
  -9.2662387495540174E-003  -1.0745607467759628        0.00000000    
  -5.9753362577832474E-003  -1.0720764463569710        0.00000000    
  -2.8293573977148205E-003  -1.0747914804445173        0.00000000    
  -1.7219518453003100E-003  -1.0742003369942363        0.00000000    
  -2.4215431589159940E-004  -1.0745033380607214        0.00000000    
   1.3555878005805581E-003  -1.0741660610820181        0.00000000    
   2.4899154120673257E-003  -1.0750498134642750        0.00000000    
   5.9970674898160289E-003  -1.0718751751104951        0.00000000    
   9.9649685035026261E-003  -1.0746706237370893        0.00000000    
   3.9850666569853366E-002  -1.0460325854568240        0.00000000    
  0.35878017693379061      -0.28877157907815415        0.00000000    
  0.58427179239939697       -8.8666786687208191E-002   0.00000000    
  0.67073105141963452       0.10191639468390326        0.00000000    
  0.74573070706218303       0.19174975879634892        0.00000000    
  0.76977059111772661       0.27323554439917980        0.00000000    
  0.78086061024343578       0.31304324965042674        0.00000000    
  0.76467160101862919       0.35107352388307828        0.00000000    
  0.73986807425353662       0.36830243917546429        0.00000000    
  0.69910750328224291       0.38655874051333300        0.00000000    
  0.65364407676502456       0.39351724380057973        0.00000000    
  0.59864202090070262       0.40227792969036108        0.00000000    
  0.54141141065318499       0.40451810521138321        0.00000000    
  0.47844315136237781       0.40861503594439130        0.00000000    
  0.41457627644800599       0.40874789393020688        0.00000000    
  0.34729511680756370       0.41061953844111504        0.00000000    
  0.27973922845964316       0.40993929756088543        0.00000000    
  0.21026487142669695       0.41088087500506115        0.00000000    
  0.14075047769029664       0.41002972361689982        0.00000000    
   7.0372551857719248E-002  0.41072672702747115        0.00000000    
   0.0000000000000000       0.40996488812144971        0.00000000    
   0.0000000000000000       0.47745959600187499        0.00000000    
  -6.3475416669122764E-002  0.47649823051717355        0.00000000    
 -0.12647002727496851       0.47705865653484419        0.00000000    
 -0.18917626511852390       0.47548616120010978        0.00000000    
 -0.25034486852349469       0.47542029816227349        0.00000000    
 -0.31077028381530653       0.47253402052552829        0.00000000    
 -0.36828925182146438       0.47109986351281574        0.00000000    
 -0.42422290836213328       0.46548458555834932        0.00000000    
 -0.47526588267429776       0.46115919840863934        0.00000000    
 -0.52315522628692723       0.45019137245237173        0.00000000    
 -0.56308154825809076       0.44007650929903852        0.00000000    
 -0.59703754409338516       0.41887003535253475        0.00000000    
 -0.61811083291147895       0.39742204798243952        0.00000000    
 -0.62842734785557985       0.35652344165060129        0.00000000    
 -0.61785366346818860       0.31284205313983199        0.00000000    
 -0.58886811760933788       0.23271304141721777        0.00000000    
 -0.52556018922686532       0.14449960681003415        0.00000000    
 -0.43089877478048866       -2.1601431798670787E-002   0.00000000    
 -0.27862383243347749      -0.20467461554800095        0.00000000    
  -4.8375437795807261E-002 -0.63168465065754120        0.00000000    
  -2.4195062258102436E-004  -1.0748953813217064        0.00000000    
  -2.3946447197636540E-004  -1.0749430420233732        0.00000000    
  -2.3804710805129219E-004  -1.0749864617122600        0.00000000    
  -2.3621517012160830E-004  -1.0750292718843131        0.00000000    
  -2.3454657957920042E-004  -1.0750716135375618        0.00000000    
  -2.3286956984660867E-004  -1.0751135302203045        0.00000000    
  -2.3118849181461335E-004  -1.0751552850764818        0.00000000    
  -2.2953237566580742E-004  -1.0751965670036547        0.00000000    
  -2.2772628897817267E-004  -1.0752373757488274        0.00000000    
  -2.2635108680375322E-004  -1.0752776882417714        0.00000000    
  -2.2386570833793668E-004  -1.0753136953188620        0.00000000    
   5.0323703127278803E-002 -0.62896618175062158        0.00000000    
  0.28052195683271236      -0.20416087897338325        0.00000000    
  0.43220600285610966       -2.0731589661824212E-002   0.00000000    
  0.52682170574784837       0.14478356460211525        0.00000000    
  0.58980933184537188       0.23317544105953783        0.00000000    
  0.61876573073751429       0.31305812453718046        0.00000000    
  0.62914229333832172       0.35687230699795880        0.00000000    
  0.61880875484505227       0.39764191985571162        0.00000000    
  0.59759794940682198       0.41919184979342061        0.00000000    
  0.56362758264644763       0.44031913372221310        0.00000000    
  0.52359563192395830       0.45051126268584135        0.00000000    
  0.47568827473432840       0.46142395130576502        0.00000000    
  0.42455876661187592       0.46580817607526431        0.00000000    
  0.36860055078097875       0.47138106046297962        0.00000000    
  0.31100802440566711       0.47286127861868715        0.00000000    
  0.25055056117005409       0.47571212792045503        0.00000000    
  0.18931836129690091       0.47581582343495554        0.00000000    
  0.12657244522926334       0.47735630594286921        0.00000000    
   6.3522716946237276E-002  0.47682902116272979        0.00000000    
   0.0000000000000000       0.47775908484256768        0.00000000    
   0.0000000000000000       0.53631039132759839        0.00000000    
  -5.5848998121640563E-002  0.53697301194528169        0.00000000    
 -0.11142590156019747       0.53515655038315935        0.00000000    
 -0.16594622137321730       0.53461598704509827        0.00000000    
 -0.21955461035855778       0.53106862448284897        0.00000000    
 -0.27086704318587862       0.52862470383486304        0.00000000    
 -0.32031284982595737       0.52197511235222294        0.00000000    
 -0.36581691581192755       0.51604821970291725        0.00000000    
 -0.40787686820991242       0.50369964527570654        0.00000000    
 -0.44363452498369876       0.49129908498835412        0.00000000    
 -0.47328119623782816       0.46854294004752600        0.00000000    
 -0.49312357489242209       0.44420313661645711        0.00000000    
 -0.50241268702692810       0.40245249240915310        0.00000000    
 -0.49677128492816297       0.35616926689005213        0.00000000    
 -0.47344910365338910       0.27930150083672067        0.00000000    
 -0.42853898456685557       0.19235908795365808        0.00000000    
 -0.35497223016813489        4.7980010345594709E-002   0.00000000    
 -0.25762866215039354      -0.11708564624288369        0.00000000    
 -0.11572878817113251      -0.40336408519993106        0.00000000    
  -4.9676321479929689E-002 -0.72929481829517651        0.00000000    
  -1.9535318350574884E-004  -1.0748984985412624        0.00000000    
  -1.9413676605287950E-004  -1.0749436273710784        0.00000000    
  -1.9372283514013084E-004  -1.0749877076579386        0.00000000    
  -1.9301096380062627E-004  -1.0750305697463840        0.00000000    
  -1.9207036949991200E-004  -1.0750729248588109        0.00000000    
  -1.9104497846590297E-004  -1.0751149212983055        0.00000000    
  -1.9003611060285550E-004  -1.0751565839428543        0.00000000    
  -1.8910950146446481E-004  -1.0751978508610451        0.00000000    
  -1.8838040031982607E-004  -1.0752386270777696        0.00000000    
  -1.8795469515239376E-004  -1.0752782378187322        0.00000000    
  -1.8677115157492364E-004  -1.0753168146631402        0.00000000    
   4.9179108629948495E-002 -0.72887533899298051        0.00000000    
  0.11667093251153873      -0.40194057650050913        0.00000000    
  0.25861202979204262      -0.11657590267310933        0.00000000    
  0.35589682098903780        4.8728554471041539E-002   0.00000000    
  0.42943206971257802       0.19270870954847294        0.00000000    
  0.47420380148678593       0.27979788417349710        0.00000000    
  0.49749531423560506       0.35646561082742689        0.00000000    
  0.50301653906396171       0.40286208624088543        0.00000000    
  0.49370253298826272       0.44449763980653850        0.00000000    
  0.47376116034669180       0.46892624043494424        0.00000000    
  0.44409104102540881       0.49160737617239908        0.00000000    
  0.40825013262059545       0.50407726228168459        0.00000000    
  0.36616428964859293       0.51637137055431603        0.00000000    
  0.32058846834693533       0.52235306346216992        0.00000000    
  0.27111213422153529       0.52895929365248118        0.00000000    
  0.21973688405237582       0.53144798771953317        0.00000000    
  0.16609232928993642       0.53495787805217210        0.00000000    
  0.11151669985187962       0.53553695880955421        0.00000000    
   5.5897566554304029E-002  0.53731839109248147        0.00000000    
   0.0000000000000000       0.53669116033947328        0.00000000    
   0.0000000000000000       0.58928589290827826        0.00000000    
  -4.7969677094311457E-002  0.58781728703897307        0.00000000    
  -9.5404767596928897E-002  0.58732537115251937        0.00000000    
 -0.14203668317096324       0.58360050209138925        0.00000000    
 -0.18699097272792745       0.58064788986230498        0.00000000    
 -0.23013125449182809       0.57349925181549921        0.00000000    
 -0.27021947229418919       0.56663569023952409        0.00000000    
 -0.30701752500437918       0.55369085692660114        0.00000000    
 -0.33897569466110511       0.54007623079500733        0.00000000    
 -0.36534062738289358       0.51704618228347210        0.00000000    
 -0.38447146592082693       0.49157445250346904        0.00000000    
 -0.39436652330395344       0.45091014970650078        0.00000000    
 -0.39395818112026254       0.40462734914996717        0.00000000    
 -0.37869845934641033       0.33309437151891663        0.00000000    
 -0.35013667313342184       0.25049353068861119        0.00000000    
 -0.29883778726432608       0.12495913458385791        0.00000000    