 <VTKFile type="UnstructuredGrid" version="0.1" byte_order="BigEndian">
 <UnstructuredGrid>
 <Piece NumberOfPoints="        2601 " NumberOfCells="        2500 ">
 <PointData Scalars="scalars">
 <DataArray type="Float32" NumberOfComponents="3" Name="Velocity" Format="ascii">
   0.0000000000000000        0.0000000000000000        0.00000000    
 -0.11303592717246638        0.0000000000000000        0.00000000    
 -0.22615223369663626        0.0000000000000000        0.00000000    
 -0.33827332773693036        0.0000000000000000        0.00000000    
 -0.45060218050007178        0.0000000000000000        0.00000000    
 -0.56077246979283379        0.0000000000000000        0.00000000    
 -0.67115517753020437        0.0000000000000000        0.00000000    
 -0.77784060427373891        0.0000000000000000        0.00000000    
 -0.88444205862876757        0.0000000000000000        0.00000000    
 -0.98512815105479401        0.0000000000000000        0.00000000    
  -1.0847206726491527        0.0000000000000000        0.00000000    
  -1.1750046341708995        0.0000000000000000        0.00000000    
  -1.2615151564698228        0.0000000000000000        0.00000000    
  -1.3333630348181484        0.0000000000000000        0.00000000    
  -1.3951374391369356        0.0000000000000000        0.00000000    
  -1.4341651194292084        0.0000000000000000        0.00000000    
  -1.4509609776713399        0.0000000000000000        0.00000000    
  -1.4353697059332520        0.0000000000000000        0.00000000    
  -1.3813927936960422        0.0000000000000000        0.00000000    
  -1.2895756183253260        0.0000000000000000        0.00000000    
  -1.1490163139821541        0.0000000000000000        0.00000000    
 -0.97591708075495853        0.0000000000000000        0.00000000    
 -0.75937786863110091        0.0000000000000000        0.00000000    
 -0.52408850652759553        0.0000000000000000        0.00000000    
 -0.26452142541630985        0.0000000000000000        0.00000000    
   4.8360620874933783E-004   0.0000000000000000        0.00000000    
  0.26546478260843154        0.0000000000000000        0.00000000    
  0.52501615059004536        0.0000000000000000        0.00000000    
  0.76024729046291950        0.0000000000000000        0.00000000    
  0.97674367885054547        0.0000000000000000        0.00000000    
   1.1497695877332410        0.0000000000000000        0.00000000    
   1.2902773955834284        0.0000000000000000        0.00000000    
   1.3820244329175990        0.0000000000000000        0.00000000    
   1.4359529923873722        0.0000000000000000        0.00000000    
   1.4514850176107523        0.0000000000000000        0.00000000    
   1.4346470920856322        0.0000000000000000        0.00000000    
   1.3955703846366529        0.0000000000000000        0.00000000    
   1.3337592419151172        0.0000000000000000        0.00000000    
   1.2618695346784410        0.0000000000000000        0.00000000    
   1.1753260814434603        0.0000000000000000        0.00000000    
   1.0850051776399858        0.0000000000000000        0.00000000    
  0.98538240663870291        0.0000000000000000        0.00000000    
  0.88466291152414245        0.0000000000000000        0.00000000    
  0.77803311266984954        0.0000000000000000        0.00000000    
  0.67131697454481853        0.0000000000000000        0.00000000    
  0.56090721597408055        0.0000000000000000        0.00000000    
  0.45070824046654540        0.0000000000000000        0.00000000    
  0.33835308227446520        0.0000000000000000        0.00000000    
  0.22620472679059042        0.0000000000000000        0.00000000    
  0.11306233074417632        0.0000000000000000        0.00000000    
   0.0000000000000000        0.0000000000000000        0.00000000    
   0.0000000000000000       0.11285207355816616        0.00000000    
 -0.11242434254097700       0.11260970029764489        0.00000000    
 -0.22435674770941536       0.11244051523882320        0.00000000    
 -0.33642090180966000       0.11174623596607813        0.00000000    
 -0.44692755681137408       0.11109077394796771        0.00000000    
 -0.55762696472097539       0.10978042378940688        0.00000000    
 -0.66544068966331793       0.10841750783094269        0.00000000    
 -0.77332135981859196       0.10615008544332273        0.00000000    
 -0.87648401860644043       0.10361552168413628        0.00000000    
 -0.97915333964756779        9.9741382064003847E-002   0.00000000    
  -1.0743975112855337        9.5096798066808375E-002   0.00000000    
  -1.1675797056525947        8.8370839615204394E-002   0.00000000    
  -1.2491515962503961        7.9713050392226606E-002   0.00000000    
  -1.3247909263718360        6.7775628377304192E-002   0.00000000    
  -1.3822870428297718        5.1496356269344699E-002   0.00000000    
  -1.4252532545125800        3.0498990890437366E-002   0.00000000    
  -1.4408172716470018        1.8623310277723522E-003   0.00000000    
  -1.4268596630453583       -3.1409775010527767E-002   0.00000000    
  -1.3766065991465415       -7.2818775594200677E-002   0.00000000    
  -1.2809518235929940      -0.11465176020547141        0.00000000    
  -1.1484470164597085      -0.15841094789085911        0.00000000    
 -0.96677621184702589      -0.19635769533667230        0.00000000    
 -0.75973164231265089      -0.22722470184546312        0.00000000    
 -0.51735961804450570      -0.25043530568472538        0.00000000    
 -0.26455400016854747      -0.26193602031609720        0.00000000    
   4.8044280085204866E-004 -0.26810208319649459        0.00000000    
  0.26551799574970125      -0.26191527506742929        0.00000000    
  0.51827959550559255      -0.25039631968404075        0.00000000    
  0.76061868619333428      -0.22717253203048307        0.00000000    
  0.96759306739103768      -0.19629685307781383        0.00000000    
   1.1492135332306344      -0.15834812702735082        0.00000000    
   1.2816439404623121      -0.11458868467366129        0.00000000    
   1.3772475178600800       -7.2760514930480677E-002   0.00000000    
   1.4274354723847944       -3.1354573533209619E-002   0.00000000    
   1.4413477345561372        1.9117224963843722E-003   0.00000000    
   1.4257300586816271        3.0545325442934066E-002   0.00000000    
   1.3827245308397254        5.1538365031535659E-002   0.00000000    
   1.3251833912916027        6.7815381104860795E-002   0.00000000    
   1.2495092763033251        7.9749911417312969E-002   0.00000000    
   1.1678981847601422        8.8406110467539156E-002   0.00000000    
   1.0746844287626525        9.5130031123177583E-002   0.00000000    
  0.97940517606266242        9.9773479472076654E-002   0.00000000    
  0.87670660226281893       0.10364607971930592        0.00000000    
  0.77351197216826484       0.10617984320936256        0.00000000    
  0.66560367475144588       0.10844608870359523        0.00000000    
  0.55776035200719642       0.10980849154715974        0.00000000    
  0.44703435774031741       0.11111797875769988        0.00000000    
  0.33649984188906251       0.11177319742993502        0.00000000    
  0.22440959609154620       0.11246690691111097        0.00000000    
  0.11245047518302975       0.11263611388281472        0.00000000    
   0.0000000000000000       0.11287819618195578        0.00000000    
   0.0000000000000000       0.22393669700701044        0.00000000    
 -0.11005245431885173       0.22400331636041731        0.00000000    
 -0.22014363192292347       0.22307192413276861        0.00000000    
 -0.32920523812525387       0.22224202914438124        0.00000000    
 -0.43835094918839712       0.22024878716746707        0.00000000    
 -0.54527101160739289       0.21824332037897098        0.00000000    
 -0.65220977108194800       0.21470853262830233        0.00000000    
 -0.75536203170936245       0.21089342705301375        0.00000000    
 -0.85822226873032148       0.20489650774258819        0.00000000    
 -0.95509797971146793       0.19800685793810252        0.00000000    
  -1.0508480039734007       0.18782694272689815        0.00000000    
  -1.1373662055324034       0.17534251274341425        0.00000000    
  -1.2207755312852742       0.15772400839677581        0.00000000    
  -1.2900081458185761       0.13463802576787209        0.00000000    
  -1.3515222518318277       0.10364558303905606        0.00000000    
  -1.3912679597558317        6.1063079235153993E-002   0.00000000    
  -1.4125994903357106        8.1951752882377590E-003   0.00000000    
  -1.4018160145125995       -6.2482328325663007E-002   0.00000000    
  -1.3539855829131562      -0.13982835306050440        0.00000000    
  -1.2670796262468620      -0.23020156343271489        0.00000000    
  -1.1281460727953119      -0.31429816212557993        0.00000000    
 -0.95760762850480463      -0.39267840149511518        0.00000000    
 -0.74079459287717642      -0.45476027712597611        0.00000000    
 -0.51039170490249541      -0.49567333045373324        0.00000000    
 -0.25602082154551520      -0.52387318634699542        0.00000000    
   4.9843922340656629E-004 -0.52771731482210904        0.00000000    
  0.25699216865516250      -0.52383001974626353        0.00000000    
  0.51134314671344050      -0.49559284237790313        0.00000000    
  0.74168120914236890      -0.45465185026325494        0.00000000    
  0.95844597943392529      -0.39255536260172408        0.00000000    
   1.1289052849711212      -0.31416806037259931        0.00000000    
   1.2677844890648464      -0.23007701952301890        0.00000000    
   1.3546184294336328      -0.13970834632406931        0.00000000    
   1.4023996930543901       -6.2374595563602565E-002   0.00000000    
   1.4131242579956922        8.2962927807726881E-003   0.00000000    
   1.3917501802935093        6.1153893627606357E-002   0.00000000    
   1.3519558122837694       0.10373108820188399        0.00000000    
   1.2904044390659557       0.13471657238876131        0.00000000    
   1.2211299419788733       0.15779874294429180        0.00000000    
   1.1376872577071553       0.17541246953535020        0.00000000    
   1.0511319390478557       0.18789416856917404        0.00000000    
  0.95535142481118229       0.19807053359394874        0.00000000    
  0.85844223344432380       0.20495822066905947        0.00000000    
  0.75555358800817918       0.21095240964596870        0.00000000    
  0.65237066533096255       0.21476617798005324        0.00000000    
  0.54540491735920904       0.21829890995263768        0.00000000    
  0.43845630772570299       0.22030360372784838        0.00000000    
  0.32928443040965066       0.22229540595563030        0.00000000    
  0.22019574737565453       0.22312506898153397        0.00000000    
  0.11007866158995464       0.22405560068615127        0.00000000    
   0.0000000000000000       0.22398928879851143        0.00000000    
   0.0000000000000000       0.33263413778368983        0.00000000    
 -0.10653057307117883       0.33189028433953871        0.00000000    
 -0.21253671314476538       0.33128365508645935        0.00000000    
 -0.31851189206785235       0.32906846348043778        0.00000000    
 -0.42283256403323222       0.32689011569042326        0.00000000    
 -0.52702619098798498       0.32271705879784024        0.00000000    
 -0.62817916695152876       0.31832790664908134        0.00000000    
 -0.72896435357744016       0.31121287368711875        0.00000000    
 -0.82485279011706913       0.30332710723975348        0.00000000    
 -0.91987325070901049       0.29147379739336676        0.00000000    
  -1.0073860607792560       0.27762420379116648        0.00000000    
  -1.0930765637813307       0.25775531532385115        0.00000000    
  -1.1674902023360774       0.23313552737635224        0.00000000    
  -1.2382359635036939       0.19920623044096450        0.00000000    
  -1.2921219311627319       0.15447879676672308        0.00000000    
  -1.3380428067085361        9.5897782297448012E-002   0.00000000    
  -1.3582977335371824        1.4948256524879361E-002   0.00000000    
  -1.3566903853439976       -8.1624918876905248E-002   0.00000000    
  -1.3173957739386155      -0.20780950299711465        0.00000000    
  -1.2305775127715679      -0.33594333864542109        0.00000000    
  -1.1048004565069109      -0.47326572195230304        0.00000000    
 -0.92113099925173780      -0.58791747314355036        0.00000000    
 -0.72005330124616940      -0.67741068760363476        0.00000000    
 -0.48203049987021201      -0.74144735795885497        0.00000000    
 -0.24594151981087506      -0.76855778245459427        0.00000000    
   5.1054437373693608E-004 -0.78600280322709581        0.00000000    
  0.24696213598360917      -0.76848861193029883        0.00000000    
  0.48299752251328965      -0.74131937498605172        0.00000000    
  0.72097609454109057      -0.67724070072925058        0.00000000    
  0.92196918067002032      -0.58772311705491820        0.00000000    
   1.1055799597080880      -0.47306912041015292        0.00000000    
   1.2312750221230655      -0.33574895132281912        0.00000000    
   1.3180392143077233      -0.20763325438396413        0.00000000    
   1.3572682375152711       -8.1458671820585513E-002   0.00000000    
   1.3588289712797321        1.5096385038512003E-002   0.00000000    
   1.3385213705217804        9.6036806714650411E-002   0.00000000    
   1.2925599097297655       0.15460533723805764        0.00000000    
   1.2386290187217011       0.19932593230090720        0.00000000    
   1.1678474254364473       0.23324682135546199        0.00000000    
   1.0933942007371620       0.25786165734139066        0.00000000    
   1.0076714818374768       0.27772437740372374        0.00000000    
  0.92012332374629224       0.29157036326845170        0.00000000    
  0.82507335659412695       0.30341891689006073        0.00000000    
  0.72915295725856910       0.31130213076136792        0.00000000    
  0.62834018947700143       0.31841352072151524        0.00000000    
  0.52715784414268740       0.32280103751307104        0.00000000    
  0.42293786597950639       0.32697144152820312        0.00000000    
  0.31858968729708187       0.32914900397882524        0.00000000    
  0.21258876080574771       0.33136246064360891        0.00000000    
  0.10655630815669469       0.33196912870888690        0.00000000    
   0.0000000000000000       0.33271211188343841        0.00000000    
   0.0000000000000000       0.43622159646353575        0.00000000    
 -0.10143973360980674       0.43627445295592282        0.00000000    
 -0.20280099213545663       0.43426820508115260        0.00000000    
 -0.30304476555648951       0.43230418581377439        0.00000000    
 -0.40301998400491840       0.42795160189922188        0.00000000    
 -0.50059494150864026       0.42342547513542667        0.00000000    
 -0.59761229366065738       0.41579113326806533        0.00000000    
 -0.69059578016561485       0.40751963501246247        0.00000000    
 -0.78257530395204344       0.39488961617632939        0.00000000    
 -0.86831285691329563       0.38067061194461632        0.00000000    
 -0.95242193854589197       0.36005058403063650        0.00000000    
  -1.0272311056850179       0.33582990826785536        0.00000000    
  -1.0996939508999579       0.30193871203228745        0.00000000    
  -1.1585867570156139       0.26004290643300310        0.00000000    
  -1.2144883205988481       0.20343093352252437        0.00000000    
  -1.2505916596538478       0.12897113944364225        0.00000000    
  -1.2817665501451863        3.3305981893737902E-002   0.00000000    
  -1.2819871897917003      -0.10136809540968460        0.00000000    
  -1.2548640830224118      -0.25448280063499790        0.00000000    
  -1.1827166377224176      -0.44823452168581401        0.00000000    
  -1.0455980045912971      -0.62386900941528667        0.00000000    
 -0.88061540745381761      -0.78596504719119753        0.00000000    
 -0.65899538187393236      -0.90205964259766769        0.00000000    
 -0.44796822969353772      -0.96584718407811998        0.00000000    
 -0.21790441860485316       -1.0103095707117715        0.00000000    
   5.4346098487648967E-004  -1.0091497902480391        0.00000000    
  0.21896197050375760       -1.0102105575550868        0.00000000    
  0.44899190774438608      -0.96566157634065042        0.00000000    
  0.65993255736956447      -0.90181654859374849        0.00000000    
  0.88148851213763646      -0.78569511552205806        0.00000000    
   1.0463733464412752      -0.62359154241108161        0.00000000    
   1.1834309846703763      -0.44797801105664692        0.00000000    
   1.2555023684691187      -0.25423854485302166        0.00000000    
   1.2825734775834432      -0.10115226966001498        0.00000000    
   1.2822954718456379        3.3508512226233279E-002   0.00000000    
   1.2510752720173066       0.12915374531204929        0.00000000    
   1.2149237170382754       0.20360269370533116        0.00000000    
   1.1589828621156488       0.26020160327065900        0.00000000    
   1.1000474926739952       0.30208940646985954        0.00000000    
   1.0275500064213117       0.33597107700834533        0.00000000    
  0.95270314245893239       0.36018584363388684        0.00000000    
  0.86856300775492679       0.38079849291942092        0.00000000    
  0.78279185668572426       0.39501321538824363        0.00000000    
  0.69078388993215301       0.40763750828542999        0.00000000    
  0.59777001803272889       0.41590609768550357        0.00000000    
  0.50072597653294526       0.42353616222077722        0.00000000    
  0.40312298570711896       0.42806060389148676        0.00000000    
  0.30312209456765338       0.43241022956177277        0.00000000    
  0.20285186604684913       0.43437371005125602        0.00000000    
  0.10146529864524814       0.43637821935923399        0.00000000    
   0.0000000000000000       0.43632594864529650        0.00000000    
   0.0000000000000000       0.53531397345747889        0.00000000    
  -9.5403089277782779E-002  0.53402615873029313        0.00000000    
 -0.19023205683236613       0.53270798534634600        0.00000000    
 -0.28473521196877438       0.52861259274256123        0.00000000    
 -0.37743432730358595       0.52431878764434081        0.00000000    
 -0.46940861516701615       0.51660879090181910        0.00000000    
 -0.55809447503940701       0.50831228615501767        0.00000000    
 -0.64552341038851180       0.49541215622961510        0.00000000    
 -0.72772588340523225       0.48118034481499378        0.00000000    
 -0.80800104552289376       0.46039384509737019        0.00000000    
 -0.88042209042077024       0.43685872533618086        0.00000000    
 -0.95027630264326068       0.40368638549996305        0.00000000    
  -1.0086797946941299       0.36494981286750799        0.00000000    
  -1.0645377571746599       0.31178380330356520        0.00000000    
  -1.1039793550517161       0.24703442878867557        0.00000000    
  -1.1431210679451220       0.16061391176666803        0.00000000    
  -1.1583223067845483        4.8040553810937837E-002   0.00000000    
  -1.1788274724402090       -9.5375664907057137E-002   0.00000000    
  -1.1580967832696580      -0.30832784186330903        0.00000000    
  -1.0931002869068953      -0.53153225060760034        0.00000000    
 -0.97826486203793550      -0.79252419774643035        0.00000000    
 -0.77512534452957382      -0.98543083220349603        0.00000000    
 -0.58740147311228430       -1.1119366499854890        0.00000000    
 -0.36546674216394687       -1.1889309443847125        0.00000000    
 -0.18328955185296525       -1.1994657179403874        0.00000000    
   5.7173058309254994E-004  -1.2223017052020089        0.00000000    
  0.18442208467162258       -1.1993264063443065        0.00000000    
  0.36652901847364405       -1.1886815047419177        0.00000000    
  0.58839775455794940       -1.1116048904376834        0.00000000    
  0.77600260412791988      -0.98506647342987796        0.00000000    
  0.97907138065673360      -0.79217265400562531        0.00000000    
   1.0938108577934527      -0.53119287409231208        0.00000000    
   1.1587484619788606      -0.30803149827256826        0.00000000    
   1.1794152009371011       -9.5095979109362683E-002   0.00000000    
   1.1588569399988724        4.8289685475951145E-002   0.00000000    
   1.1436041168382411       0.16084680995133760        0.00000000    
   1.1044180092389337       0.24724850728740699        0.00000000    
   1.0649302007496886       0.31198568376783004        0.00000000    
   1.0090341448757190       0.36513798039817602        0.00000000    
  0.95058994454954260       0.40386543045183548        0.00000000    
  0.88070251692704948       0.43702702095035129        0.00000000    
  0.80824578460434215       0.46055543054953429        0.00000000    
  0.72794097021102289       0.48133348993124703        0.00000000    
  0.64570683743960999       0.49556058631279121        0.00000000    
  0.55825068132535638       0.50845429991913005        0.00000000    
  0.46953613637281139       0.51674780306180623        0.00000000    
  0.37753614542604447       0.52445320096394865        0.00000000    
  0.28481038723710533       0.52874554070242230        0.00000000    
  0.19028229326050711       0.53283798004042859        0.00000000    
   9.5427930971149044E-002  0.53415613901501069        0.00000000    
   0.0000000000000000       0.53544251848190505        0.00000000    
   0.0000000000000000       0.62649894176488108        0.00000000    
  -8.8148505288791978E-002  0.62639398478473562        0.00000000    
 -0.17605115674353020       0.62307297740176470        0.00000000    
 -0.26273975730752885       0.61944055583044721        0.00000000    
 -0.34864691202088971       0.61209829191007648        0.00000000    
 -0.43196049841251904       0.60411835893908672        0.00000000    
 -0.51383151684246886       0.59136079072274261        0.00000000    
 -0.59137839770863698       0.57734066344359691        0.00000000    
 -0.66664752165424002       0.55672462448398363        0.00000000    
 -0.73528629976441551       0.53376469755236489        0.00000000    
 -0.80070769272495312       0.50133149464523041        0.00000000    
 -0.85633209900151963       0.46469342152821952        0.00000000    
 -0.90812224987738832       0.41413759564636893        0.00000000    
 -0.94567961571597237       0.35601252880467149        0.00000000    
 -0.98054570861276746       0.27711455928360551        0.00000000    
 -0.99460883401450573       0.18373978964583088        0.00000000    
  -1.0133609468761142        5.8869178273068951E-002   0.00000000    
 -0.99945106394975636       -9.9607853764925716E-002   0.00000000    
  -1.0190536741412100      -0.30522260335326595        0.00000000    
 -0.97137286281966384      -0.64731369199180133        0.00000000    
 -0.82129963940122963      -0.94165031012666456        0.00000000    
 -0.65923649944167639       -1.2015063377835182        0.00000000    
 -0.41307524391807837       -1.3297452140958856        0.00000000    
 -0.26724110157328917       -1.3388902400119671        0.00000000    
 -0.12531768706764859       -1.3736059939583003        0.00000000    
   6.0692658668803597E-004  -1.3579463043114128        0.00000000    
  0.12651376000653908       -1.3734379737965343        0.00000000    
  0.26838774610064708       -1.3385498239791522        0.00000000    
  0.41409796101728130       -1.3293145086563938        0.00000000    
  0.66017713910898690       -1.2010398255786705        0.00000000    
  0.82210249314243822      -0.94119239292646117        0.00000000    
  0.97211183509710641      -0.64692085971136515        0.00000000    
   1.0197159175421695      -0.30484409448833644        0.00000000    
   1.0000444543993308       -9.9277530067446676E-002   0.00000000    
   1.0138999982785029        5.9175106356665050E-002   0.00000000    
  0.99509530834495974       0.18402005280836872        0.00000000    
  0.98098123323434272       0.27737661720832768        0.00000000    
  0.94607198223401734       0.35625579855984080        0.00000000    
  0.90846989595547611       0.41436718770928421        0.00000000    
  0.85664353271653748       0.46490796258622225        0.00000000    
  0.80098072749662874       0.50153590848725249        0.00000000    
  0.73552805164602164       0.53395713509057208        0.00000000    
  0.66685601358279312       0.55690982973449144        0.00000000    
  0.59155892761527151       0.57751665516717876        0.00000000    
  0.51398256643537843       0.59153194391783726        0.00000000    
  0.43208570566212146       0.60428275908872975        0.00000000    
  0.34874524473752211       0.61225989484971066        0.00000000    
  0.26281346262843824       0.61959758441651147        0.00000000    
  0.17609964494725985       0.62322904742118002        0.00000000    
   8.8172844547035639E-002  0.62654743342001307        0.00000000    
   0.0000000000000000       0.62665319938526476        0.00000000    
   0.0000000000000000       0.71158014811104076        0.00000000    
  -8.0239679600217162E-002  0.70970210287324298        0.00000000    
 -0.15986647399908768       0.70729544496223529        0.00000000    
 -0.23880938211412947       0.70085073528825514        0.00000000    
 -0.31583414280197880       0.69362116697970455        0.00000000    
 -0.39138702440221751       0.68146308796298638        0.00000000    
 -0.46346637631179249       0.66796756958431636        0.00000000    
 -0.53308724544570452       0.64790276729664731        0.00000000    
 -0.59722152955048746       0.62556706371950399        0.00000000    
 -0.65766427123778504       0.59400490611981516        0.00000000    
 -0.70986989634675790       0.55871943571320304        0.00000000    
 -0.75702119003814228       0.51008230215668071        0.00000000    
 -0.79201468224805638       0.45553348516143577        0.00000000    
 -0.82107838052777882       0.38123881691531214        0.00000000    
 -0.83201102137426775       0.29768812622397661        0.00000000    
 -0.83879619770496439       0.18401562706886118        0.00000000    
 -0.81669423425166443        5.5244603680531176E-002   0.00000000    
 -0.80358244820493829      -0.12300386097382671        0.00000000    
 -0.73289089735214563      -0.33291443885166477        0.00000000    
 -0.75770087269472475      -0.64249163374923934        0.00000000    
 -0.66069903242050732       -1.1935464367366238        0.00000000    
 -0.32090233562974474       -1.4514690413702200        0.00000000    
 -0.21613849614327144       -1.4307066881580930        0.00000000    
 -0.12998382010615353       -1.4699166186201529        0.00000000    
  -6.3864366302117462E-002  -1.4506215452605751        0.00000000    
   6.2762795467551471E-004  -1.4713464092234740        0.00000000    
   6.5108267479734500E-002  -1.4504243901049734        0.00000000    
  0.13120750724627603       -1.4695356951365270        0.00000000    
  0.21728521632153272       -1.4301155957171525        0.00000000    
  0.32183694168134158       -1.4508687246227483        0.00000000    
  0.66158390606281114       -1.1930348056887181        0.00000000    
  0.75847040859693049      -0.64197329613594256        0.00000000    
  0.73355398827434426      -0.33247826144784848        0.00000000    
  0.80419177961264154      -0.12260859336203410        0.00000000    
  0.81723669067663385        5.5606801882622091E-002   0.00000000    
  0.83928075969016402       0.18435009161165047        0.00000000    
  0.83244474610738994       0.29799776973081626        0.00000000    
  0.82146170495354598       0.38152805948699026        0.00000000    
  0.79235768280812424       0.45580214871426739        0.00000000    
  0.75732220789211735       0.51033596678282855        0.00000000    
  0.71013755022325764       0.55895648890781346        0.00000000    
  0.65789667858951084       0.59423123371045727        0.00000000    
  0.59742505376204746       0.62578052200971745        0.00000000    
  0.53326035629262813       0.64810888135849443        0.00000000    
  0.46361343177461234       0.66816413613689607        0.00000000    
  0.39150695360418097       0.68165504335184413        0.00000000    
  0.31592971855215290       0.69380644266186586        0.00000000    
  0.23887994912973440       0.70103372725562019        0.00000000    
  0.15991356086111697       0.70747424886721499        0.00000000    
   8.0262979808700355E-002  0.70988075321641997        0.00000000    
   0.0000000000000000       0.71175684348552581        0.00000000    
   0.0000000000000000       0.78676028962830458        0.00000000    
  -7.1561653553623358E-002  0.78632437452030712        0.00000000    
 -0.14270295187218296       0.78144234530893397        0.00000000    
 -0.21258964250920229       0.77553451362643877        0.00000000    
 -0.28115441454041407       0.76452799903521296        0.00000000    
 -0.34705829740225425       0.75201409945079944        0.00000000    
 -0.41055422159175470       0.73299290931948580        0.00000000    
 -0.46965326436551169       0.71159841695731962        0.00000000    
 -0.52495127253105311       0.68130477784012522        0.00000000    
 -0.57354551611602866       0.64730525247345294        0.00000000    
 -0.61654687757388604       0.60062714261113537        0.00000000    
 -0.64958954478781283       0.54836962849132853        0.00000000    
 -0.67488656676101655       0.47753773345308187        0.00000000    
 -0.68530319840078335       0.39871596764776779        0.00000000    
 -0.68588916210462014       0.29173063252570808        0.00000000    
 -0.66314461288166748       0.17401481396137491        0.00000000    