 <VTKFile type="UnstructuredGrid" version="0.1" byte_order="BigEndian">
 <UnstructuredGrid>
 <Piece NumberOfPoints="        2601 " NumberOfCells="        2500 ">
 <PointData Scalars="scalars">
 <DataArray type="Float32" NumberOfComponents="3" Name="Velocity" Format="ascii">
   0.0000000000000000        0.0000000000000000        0.00000000    
  -7.2905686452622867E-002   0.0000000000000000        0.00000000    
 -0.14640730304004515        0.0000000000000000        0.00000000    
 -0.22110914555952760        0.0000000000000000        0.00000000    
 -0.29764304470202396        0.0000000000000000        0.00000000    
 -0.37665490969151721        0.0000000000000000        0.00000000    
 -0.45882033256984911        0.0000000000000000        0.00000000    
 -0.54476859438501724        0.0000000000000000        0.00000000    
 -0.63502188870553333        0.0000000000000000        0.00000000    
 -0.72966918265696712        0.0000000000000000        0.00000000    
 -0.82783403493120733        0.0000000000000000        0.00000000    
 -0.92615334291550733        0.0000000000000000        0.00000000    
  -1.0162720840497355        0.0000000000000000        0.00000000    
  -1.0824623288784316        0.0000000000000000        0.00000000    
  -1.1025520529573205        0.0000000000000000        0.00000000    
  -1.0665016581280724        0.0000000000000000        0.00000000    
 -0.98432160362081778        0.0000000000000000        0.00000000    
 -0.86954470093007408        0.0000000000000000        0.00000000    
 -0.73948958392845732        0.0000000000000000        0.00000000    
 -0.60648859327451354        0.0000000000000000        0.00000000    
 -0.47608805024415846        0.0000000000000000        0.00000000    
 -0.35915280879432920        0.0000000000000000        0.00000000    
 -0.25735045630844999        0.0000000000000000        0.00000000    
 -0.16466151565711037        0.0000000000000000        0.00000000    
  -7.8091701190625945E-002   0.0000000000000000        0.00000000    
   3.0072501234030139E-003   0.0000000000000000        0.00000000    
   8.2183237839561094E-002   0.0000000000000000        0.00000000    
  0.16668850377832448        0.0000000000000000        0.00000000    
  0.26019175663875643        0.0000000000000000        0.00000000    
  0.36342332140308564        0.0000000000000000        0.00000000    
  0.47730278783833913        0.0000000000000000        0.00000000    
  0.60204269932412469        0.0000000000000000        0.00000000    
  0.73444164260776135        0.0000000000000000        0.00000000    
  0.86631360253119416        0.0000000000000000        0.00000000    
  0.98219815519908615        0.0000000000000000        0.00000000    
   1.0647711436573166        0.0000000000000000        0.00000000    
   1.0996321623707823        0.0000000000000000        0.00000000    
   1.0794892685386934        0.0000000000000000        0.00000000    
   1.0146885117779103        0.0000000000000000        0.00000000    
  0.92546605699646289        0.0000000000000000        0.00000000    
  0.82753341677718240        0.0000000000000000        0.00000000    
  0.72958610156672388        0.0000000000000000        0.00000000    
  0.63503571522147240        0.0000000000000000        0.00000000    
  0.54483390420228994        0.0000000000000000        0.00000000    
  0.45890038224499408        0.0000000000000000        0.00000000    
  0.37673707195502076        0.0000000000000000        0.00000000    
  0.29771471058448190        0.0000000000000000        0.00000000    
  0.22116691245696787        0.0000000000000000        0.00000000    
  0.14644670973794210        0.0000000000000000        0.00000000    
   7.2925948856168266E-002   0.0000000000000000        0.00000000    
   0.0000000000000000        0.0000000000000000        0.00000000    
   0.0000000000000000        7.2173217852183988E-002   0.00000000    
  -7.1722488380477234E-002   7.2456449946591797E-002   0.00000000    
 -0.14398846776494320        7.3312638630469731E-002   0.00000000    
 -0.21735177827235805        7.4754006261536027E-002   0.00000000    
 -0.29237193521691807        7.6801540532678583E-002   0.00000000    
 -0.36962886763242742        7.9468745937152779E-002   0.00000000    
 -0.44968244452657197        8.2751740676824767E-002   0.00000000    
 -0.53306159078682425        8.6577151285620477E-002   0.00000000    
 -0.62010986395061818        9.0725896186198196E-002   0.00000000    
 -0.71080691931928464        9.4619927944318893E-002   0.00000000    
 -0.80416838969178750        9.6907862567174458E-002   0.00000000    
 -0.89723705213695770        9.4481566237013620E-002   0.00000000    
 -0.98264639026392220        8.1047958258419581E-002   0.00000000    
  -1.0457358855985783        4.8233209099810777E-002   0.00000000    
  -1.0630759338889431       -1.0802033403451344E-002   0.00000000    
  -1.0241922601696021       -6.4130658846720728E-002   0.00000000    
 -0.94320519761292099       -9.9035107576387504E-002   0.00000000    
 -0.83556971207598829      -0.12337595224936346        0.00000000    
 -0.71316748627842896      -0.12908007873101207        0.00000000    
 -0.58713233463850711      -0.12995476294603858        0.00000000    
 -0.46505872708623502      -0.12251809407583109        0.00000000    
 -0.35257477279532956      -0.10689981029650569        0.00000000    
 -0.25252464891423027       -9.4951374636595837E-002   0.00000000    
 -0.16286841367804017       -8.7392509768194807E-002   0.00000000    
  -7.8993293674428811E-002  -8.3051132753890311E-002   0.00000000    
   2.0532663060211804E-003  -7.9093085460716153E-002   0.00000000    
   8.1991415130107284E-002  -8.0019757333025729E-002   0.00000000    
  0.16460424747804664       -8.7097047871850797E-002   0.00000000    
  0.25442073727651970       -9.6221402451816013E-002   0.00000000    
  0.35403318318340732      -0.10662131552968564        0.00000000    
  0.46484841176114600      -0.11807208523493426        0.00000000    
  0.58536032025312934      -0.12717843754256333        0.00000000    
  0.71045306027107624      -0.13031194304137883        0.00000000    
  0.83281009785315929      -0.12391574177571271        0.00000000    
  0.94104339075958388      -0.10020077473907783        0.00000000    
   1.0222333711260885       -6.3560842668033329E-002   0.00000000    
   1.0607042123321733       -9.7696398866251866E-003   0.00000000    
   1.0437659448515280        4.6852205185736122E-002   0.00000000    
  0.98161066284242360        8.0105260859770086E-002   0.00000000    
  0.89670455639231450        9.4024745558664746E-002   0.00000000    
  0.80395335601025275        9.6660553370459867E-002   0.00000000    
  0.71074544198112677        9.4496143685893735E-002   0.00000000    
  0.62013752773275799        9.0663631678774725E-002   0.00000000    
  0.53312523445923854        8.6551952566563423E-002   0.00000000    
  0.44976252496562075        8.2745762742415616E-002   0.00000000    
  0.36970664575402534        7.9474913574954911E-002   0.00000000    
  0.29244165289651347        7.6813929695663613E-002   0.00000000    
  0.21740648275669647        7.4770529258459117E-002   0.00000000    
  0.14402661304185296        7.3331035021912114E-002   0.00000000    
   7.1741705810256115E-002   7.2476125678880510E-002   0.00000000    
   0.0000000000000000        7.2193021936008586E-002   0.00000000    
   0.0000000000000000       0.14204847464407047        0.00000000    
  -6.8263572304653616E-002  0.14256868528383451        0.00000000    
 -0.13692818013158575       0.14413242160523315        0.00000000    
 -0.20638790527265471       0.14675868933391964        0.00000000    
 -0.27703060406323948       0.15046114249568618        0.00000000    
 -0.34920733165653889       0.15524423173573906        0.00000000    
 -0.42322315421468526       0.16104707999369169        0.00000000    
 -0.49924664992692613       0.16768587685536404        0.00000000    
 -0.57724440528001153       0.17466461844201561        0.00000000    
 -0.65673284720902680       0.18086811757741100        0.00000000    
 -0.73652335842176653       0.18381306285280430        0.00000000    
 -0.81410725620375668       0.17823032611393480        0.00000000    
 -0.88451102721399477       0.15311369583785489        0.00000000    
 -0.93467827476831378        8.9425586094079385E-002   0.00000000    
 -0.94461401839776193       -2.4717270326145166E-002   0.00000000    
 -0.90659370377041681      -0.12711808815335676        0.00000000    
 -0.83491083369595098      -0.18871630954341134        0.00000000    
 -0.74641453838744221      -0.22982524458691833        0.00000000    
 -0.64608529937539150      -0.24536097576178806        0.00000000    
 -0.53901831211880480      -0.24677473622121518        0.00000000    
 -0.43179308312320669      -0.23499569229028494        0.00000000    
 -0.32872635596303862      -0.20997163153131057        0.00000000    
 -0.23734969001233003      -0.18330508299290230        0.00000000    
 -0.15794745313551592      -0.16809601327848894        0.00000000    
  -8.0652703772125661E-002 -0.16351623817585029        0.00000000    
   7.3454442023419107E-005 -0.16039943793807684        0.00000000    
   8.1440555217364138E-002 -0.16001739408700114        0.00000000    
  0.15893716348023604      -0.16720759114666298        0.00000000    
  0.23721352742149854      -0.18420245247062303        0.00000000    
  0.32742108043400509      -0.20845900393524658        0.00000000    
  0.43095425727349923      -0.23058154109420195        0.00000000    
  0.53949490543065659      -0.24372027500380514        0.00000000    
  0.64582533978412460      -0.24519201184561626        0.00000000    
  0.74480160169643916      -0.23036769668626053        0.00000000    
  0.83278308293068759      -0.18996230726384694        0.00000000    
  0.90447741566603246      -0.12668232178683836        0.00000000    
  0.94366536647845567       -2.4305630738382860E-002   0.00000000    
  0.93458545486885092        8.7407723039861496E-002   0.00000000    
  0.88437051723629845       0.15192133417259646        0.00000000    
  0.81397095188440827       0.17751573231769130        0.00000000    
  0.73646257348693889       0.18343054526253641        0.00000000    
  0.65673963828824256       0.18065840931202151        0.00000000    
  0.57728761531446182       0.17456271782421820        0.00000000    
  0.49931283023989431       0.16764136404636848        0.00000000    
  0.42329408654752937       0.16103922733335407        0.00000000    
  0.34927695608177578       0.15525588430078141        0.00000000    
  0.27709057647232982       0.15048575916735998        0.00000000    
  0.20643604908388807       0.14678982659603726        0.00000000    
  0.13696101523906243       0.14416807162428436        0.00000000    
   6.8280463362237073E-002  0.14260597926846272        0.00000000    
   0.0000000000000000       0.14208676894611197        0.00000000    
   0.0000000000000000       0.20750461887144839        0.00000000    
  -6.2794038300283461E-002  0.20817152191853522        0.00000000    
 -0.12577550533996004       0.21017702978514388        0.00000000    
 -0.18911460262701046       0.21351427289663455        0.00000000    
 -0.25293352887994913       0.21816855231081345        0.00000000    
 -0.31728467971307134       0.22406606730357598        0.00000000    
 -0.38208214918843558       0.23103990158752796        0.00000000    
 -0.44705117279953627       0.23868693732912166        0.00000000    
 -0.51158056738292546       0.24619206760403031        0.00000000    
 -0.57461910733579435       0.25186900609031165        0.00000000    
 -0.63443239637542492       0.25241732540562806        0.00000000    
 -0.68853248054447214       0.24131138986790079        0.00000000    
 -0.73353658425278645       0.20544184263165979        0.00000000    
 -0.76135183732266998       0.11508126327574593        0.00000000    
 -0.76404278608210363       -3.7744948062805123E-002   0.00000000    
 -0.73998946580079805      -0.17616275467890444        0.00000000    
 -0.69250903207157510      -0.25883366826319282        0.00000000    
 -0.62946045283404617      -0.31125148845638934        0.00000000    
 -0.55600284904900377      -0.33772030767032457        0.00000000    
 -0.47397263177205606      -0.34351134671639011        0.00000000    
 -0.38541912485049307      -0.33403655916051239        0.00000000    
 -0.29358933146930366      -0.30582602741907167        0.00000000    
 -0.21218073384716477      -0.26023469103709762        0.00000000    
 -0.14872134821694238      -0.23402676677689982        0.00000000    
  -8.3200301550880873E-002 -0.24040002087043183        0.00000000    
  -8.4460117951828788E-004 -0.24659625574343319        0.00000000    
   8.2329811665504654E-002 -0.23836083237824407        0.00000000    
  0.14840619846821937      -0.23243588882229232        0.00000000    
  0.21106436679471763      -0.25990742646654036        0.00000000    
  0.29240166375752041      -0.30429762112680664        0.00000000    
  0.38500835033072267      -0.33088153064143033        0.00000000    
  0.47392398625926335      -0.34087531173685515        0.00000000    
  0.55585251310804418      -0.33629467476658609        0.00000000    
  0.62868032496051307      -0.31106784092682449        0.00000000    
  0.69081020414680727      -0.25937225177714834        0.00000000    
  0.73863732381953107      -0.17679255169585639        0.00000000    
  0.76430707005824150       -3.9051808264864811E-002   0.00000000    
  0.76212930751571695       0.11341288108185654        0.00000000    
  0.73387421895946559       0.20438752549240649        0.00000000    
  0.68868859858421827       0.24063606244569713        0.00000000    
  0.63450384729343567       0.25200468912579438        0.00000000    
  0.57467138684781705       0.25164101185504356        0.00000000    
  0.51163412828777721       0.24607075257469727        0.00000000    
  0.44710609815930241       0.23863750416525031        0.00000000    
  0.38213842874169601       0.23103086304429404        0.00000000    
  0.31733657424872552       0.22408459865285221        0.00000000    
  0.25297934317298554       0.21820202243765505        0.00000000    
  0.18915057211616904       0.21355823008638231        0.00000000    
  0.12580068467898506       0.21022595871375974        0.00000000    
   6.2806763820566464E-002  0.20822393484576227        0.00000000    
   0.0000000000000000       0.20755741079296763        0.00000000    
   0.0000000000000000       0.26673952179583765        0.00000000    
  -5.5712346554219062E-002  0.26744431322294560        0.00000000    
 -0.11136676190466217       0.26954142998051644        0.00000000    
 -0.16686987879072090       0.27299339544942375        0.00000000    
 -0.22205889243720037       0.27769867740494969        0.00000000    
 -0.27664434124073778       0.28347384845687262        0.00000000    
 -0.33015771822462581       0.28994427200873713        0.00000000    
 -0.38184746934998670       0.29644264487934840        0.00000000    
 -0.43059472693058887       0.30171431310770747        0.00000000    
 -0.47475368986768335       0.30354556153346829        0.00000000    
 -0.51211324569226924       0.29791490946673921        0.00000000    
 -0.53983436222604975       0.27763629717954635        0.00000000    
 -0.55508392575001864       0.22937188868262062        0.00000000    
 -0.55852723249061886       0.12241105806209411        0.00000000    
 -0.55756046465182652       -4.3349285770226786E-002   0.00000000    
 -0.55378465236088670      -0.19838627770503878        0.00000000    
 -0.53625626036063245      -0.30161770431939317        0.00000000    
 -0.50102249044595115      -0.36674854048474653        0.00000000    
 -0.45360227210634113      -0.40309982090970409        0.00000000    
 -0.39800172092675429      -0.41576134827145522        0.00000000    
 -0.33689373581969972      -0.41144679847120785        0.00000000    
 -0.26664897006083832      -0.39048909729585424        0.00000000    
 -0.19374677301952048      -0.32988116172499216        0.00000000    
 -0.13564655533866740      -0.28593863786607088        0.00000000    
  -7.8244256055638964E-002 -0.31141023458566541        0.00000000    
  -7.5823507368895761E-004 -0.33542650898019288        0.00000000    
   7.6829095563991701E-002 -0.31029106828090308        0.00000000    
  0.13451215664003618      -0.28426383990857174        0.00000000    
  0.19270107111271167      -0.32892529706729035        0.00000000    
  0.26538381763838048      -0.38929854034371580        0.00000000    
  0.33595225485290525      -0.40905448575142644        0.00000000    
  0.39775097785145341      -0.41341546494656972        0.00000000    
  0.45346896401419806      -0.40139978136276994        0.00000000    
  0.50061332211325127      -0.36593364780486998        0.00000000    
  0.53558632081342772      -0.30160806209787788        0.00000000    
  0.55347959917904888      -0.20027587344140141        0.00000000    
  0.55801840934631752       -4.5775771804142357E-002   0.00000000    
  0.55911796460184615       0.12121632770527513        0.00000000    
  0.55542112760804463       0.22853728529895842        0.00000000    
  0.54001432876474798       0.27708000790451254        0.00000000    
  0.51220427927194012       0.29755683505649738        0.00000000    
  0.47480121429006927       0.30332568595682330        0.00000000    
  0.43062787651787982       0.30159797282608219        0.00000000    
  0.38187732228643989       0.29639016913996702        0.00000000    
  0.33018648182095017       0.28993801116283041        0.00000000    
  0.27667242873038783       0.28349466321448707        0.00000000    
  0.22208381358985169       0.27773911068396029        0.00000000    
  0.16689056115042103       0.27304447306797491        0.00000000    
  0.11138121477459502       0.26960025810419136        0.00000000    
   5.5719913152142142E-002  0.26750616703124830        0.00000000    
   0.0000000000000000       0.26680316493982664        0.00000000    
   0.0000000000000000       0.31839200324679229        0.00000000    
  -4.7503519840181363E-002  0.31900894691699377        0.00000000    
  -9.4705639057733007E-002  0.32083457939590393        0.00000000    
 -0.14126243941826644       0.32376141139703102        0.00000000    
 -0.18673761758403376       0.32759610074603790        0.00000000    
 -0.23055098223206436       0.33197648516993089        0.00000000    
 -0.27190562592388084       0.33631090147554710        0.00000000    
 -0.30971728998199377       0.33957867475365222        0.00000000    
 -0.34251853393725007       0.34012802737753611        0.00000000    
 -0.36841024516459364       0.33518376229280317        0.00000000    
 -0.38504100037505801       0.32026825884901033        0.00000000    
 -0.38996233715644157       0.28792663865913593        0.00000000    
 -0.38151128713200710       0.22588129763315137        0.00000000    
 -0.36666919253499874       0.11450410052273068        0.00000000    
 -0.36153858136084188       -4.1538461290871596E-002   0.00000000    
 -0.36866109219079635      -0.19684915139676962        0.00000000    
 -0.37328066795498016      -0.31606239429959249        0.00000000    
 -0.36560127681511262      -0.39521576226474431        0.00000000    
 -0.34634559792969943      -0.44130725022570499        0.00000000    
 -0.31878989243178452      -0.46070893158625192        0.00000000    
 -0.28593992519233458      -0.46045592455442508        0.00000000    
 -0.24757408670851749      -0.45008933476378415        0.00000000    
 -0.19380444407373593      -0.39695152526400873        0.00000000    
 -0.12662057765458404      -0.34415111693967798        0.00000000    
  -6.2423697642615572E-002 -0.37479569108916366        0.00000000    
  -6.5678778987785403E-004 -0.41129274208063576        0.00000000    
   6.1046425833481174E-002 -0.37371413826679051        0.00000000    
  0.12537829191819719      -0.34285445347779159        0.00000000    
  0.19269135035352214      -0.39583541495208624        0.00000000    
  0.24635347379267744      -0.44873205373901082        0.00000000    
  0.28496520194356467      -0.45879989723080455        0.00000000    
  0.31839432469678947      -0.45889665665366314        0.00000000    
  0.34629045221288013      -0.43953145961787388        0.00000000    
  0.36568079602388437      -0.39433542561128621        0.00000000    
  0.37367847958266109      -0.31617571757278673        0.00000000    
  0.36906431221077973      -0.19898607664698739        0.00000000    
  0.36160760006177328       -4.4146414616728073E-002   0.00000000    
  0.36669026306382146       0.11340599803923479        0.00000000    
  0.38157505361200172       0.22516090060863819        0.00000000    
  0.38999029008598157       0.28744919183401568        0.00000000    
  0.38504213267193416       0.31994709554710993        0.00000000    
  0.36839844483659823       0.33498341735462089        0.00000000    
  0.34250221029749317       0.34001105458359621        0.00000000    
  0.30970456283062381       0.33952653166501678        0.00000000    
  0.27189792726487527       0.33630036881021713        0.00000000    
  0.23054803961226311       0.33199749179604332        0.00000000    
  0.18673809851124792       0.32763608493228041        0.00000000    
  0.14126445890203126       0.32381563832952176        0.00000000    
   9.4707934844570324E-002  0.32089621137921537        0.00000000    
   4.7504895356463295E-002  0.31907580339470920        0.00000000    
   0.0000000000000000       0.31845958582270878        0.00000000    
   0.0000000000000000       0.36158045366198605        0.00000000    
  -3.8678161144969886E-002  0.36200336582293041        0.00000000    
  -7.6848292478114755E-002  0.36321359922313434        0.00000000    
 -0.11395716058801279       0.36504924792066656        0.00000000    
 -0.14935896372720242       0.36718643295332770        0.00000000    
 -0.18226466224192986       0.36910640296493274        0.00000000    
 -0.21168751984544212       0.36995967109745986        0.00000000    
 -0.23639508496577713       0.36845031964155972        0.00000000    
 -0.25487560722329322       0.36253933320620979        0.00000000    
 -0.26537739884764849       0.34916714312570540        0.00000000    
 -0.26609762922326863       0.32363704702732266        0.00000000    
 -0.25579290440876790       0.27917564633725478        0.00000000    
 -0.23574392467539892       0.20613344618851009        0.00000000    
 -0.21403230974008433        9.7699434571090205E-002   0.00000000    
 -0.20316291405443529       -4.0732598763072662E-002   0.00000000    
 -0.20837154204479283      -0.18532265937766959        0.00000000    
 -0.22278380916033683      -0.30855581903963181        0.00000000    
 -0.23584336651462570      -0.39734094289216360        0.00000000    
 -0.24183683581698456      -0.45244304948641539        0.00000000    
 -0.23971675615584656      -0.47924768789077343        0.00000000    
 -0.22919369775162701      -0.48528896566977486        0.00000000    
 -0.21373811633500112      -0.47907648796269275        0.00000000    
 -0.18182640056796837      -0.45364451349503471        0.00000000    
 -0.11988759262601817      -0.41657959767789315        0.00000000    
  -5.2985550414908537E-002 -0.43346492855215363        0.00000000    
  -6.2838750309994343E-004 -0.46674636861918334        0.00000000    
   5.1682424139904148E-002 -0.43227332814314984        0.00000000    
  0.11867048078615464      -0.41561398224939639        0.00000000    
  0.18078482045403810      -0.45250207894933203        0.00000000    
  0.21284940360347160      -0.47779087944326343        0.00000000    
  0.22852043813527886      -0.48402260873542696        0.00000000    
  0.23931762514891561      -0.47789902685983127        0.00000000    
  0.24189023045701735      -0.45099659283402949        0.00000000    
  0.23634082532192233      -0.39671000154868735        0.00000000    
  0.22355388319780567      -0.30901065476941586        0.00000000    
  0.20898970650374704      -0.18697157086611937        0.00000000    
  0.20310499276087027       -4.2818278396970104E-002   0.00000000    
  0.21366909721707131        9.6432297987202556E-002   0.00000000    
  0.23552021114870283       0.20539988830707942        0.00000000    
  0.25563085960075815       0.27868550519773599        0.00000000    
  0.26597458155286752       0.32331640151272478        0.00000000    
  0.26527588594913165       0.34895767824110691        0.00000000    
  0.25479452726531215       0.36241557071058733        0.00000000    
  0.23632977618625439       0.36838559857581304        0.00000000    
  0.21163783355669280       0.36994106541010374        0.00000000    
  0.18222760010024164       0.36911810241532733        0.00000000    
  0.14933273604239544       0.36722146629773833        0.00000000    
  0.11393946413447957       0.36509835589610062        0.00000000    
   7.6837506094944524E-002  0.36327316377795016        0.00000000    
   3.8673069798716112E-002  0.36206751495184591        0.00000000    
   0.0000000000000000       0.36164702774548341        0.00000000    
   0.0000000000000000       0.39592507121129911        0.00000000    
  -2.9721239214752591E-002  0.39605927670686214        0.00000000    
  -5.8786379509864102E-002  0.39639408794581021        0.00000000    
  -8.6499489250805223E-002  0.39669186483818492        0.00000000    
 -0.11208839743791733       0.39653565488760856        0.00000000    
 -0.13466446879568258       0.39524007809868250        0.00000000    
 -0.15320178955480721       0.39178730117837318        0.00000000    
 -0.16651843395498486       0.38464802561174527        0.00000000    
 -0.17333618709109122       0.37164102899067347        0.00000000    
 -0.17239394679798004       0.34962612513476887        0.00000000    
 -0.16286354015008772       0.31436901590963906        0.00000000    
 -0.14506959978842068       0.26034614110558568        0.00000000    
 -0.12239963219348257       0.18224513644927048        0.00000000    
 -0.10121819080752978        7.8695826313099584E-002   0.00000000    
  -8.9095250180197219E-002  -4.4720179884167745E-002   0.00000000    
  -9.1485362030226433E-002 -0.17373518027726609        0.00000000    
 -0.10706687621604613      -0.29014834727310362        0.00000000    
 -0.12869543299213268      -0.38105912204411152        0.00000000    
 -0.14871039488537802      -0.44271525559873892        0.00000000    
 -0.16187892427247808      -0.47792584697167284        0.00000000    
 -0.16599236418089883      -0.49301924120065427        0.00000000    
 -0.15950519913579872      -0.49328777769102089        0.00000000    
 -0.13970353972257937      -0.49114542335877037        0.00000000    
 -0.10090141562275040      -0.47981845337833234        0.00000000    
  -4.8584251375665237E-002 -0.48944411842241509        0.00000000    
  -7.6154733787320197E-004 -0.51094588442856825        0.00000000    
   4.7381451403112798E-002 -0.48852646149577589        0.00000000    
   9.9991079190463211E-002 -0.47895737251547793        0.00000000    
  0.13886365536284720      -0.49014443809860531        0.00000000    
  0.15886446448242214      -0.49221273703556218        0.00000000    
  0.16554862106346749      -0.49195476110573516        0.00000000    
  0.16165761098424836      -0.47687186756102140        0.00000000    
  0.14887332572440565      -0.44181088718806094        0.00000000    
  0.12925847853058942      -0.38073027140865134        0.00000000    
  0.10772548207365283      -0.29066926779991609        0.00000000    
   9.1921594485503355E-002 -0.17494372384339080        0.00000000    
   8.9148405568871353E-002  -4.6187064438569958E-002   0.00000000    
  0.10093871484493376        7.7447817411240780E-002   0.00000000    
  0.12204825394366750       0.18142485425800747        0.00000000    
  0.14479123995650231       0.25980803715393824        0.00000000    
  0.16263595453672172       0.31400656186037057        0.00000000    
  0.17221407993250401       0.34938921525791378        0.00000000    
  0.17319006109513260       0.37149053767363371        0.00000000    
  0.16640298373754503       0.38456358639966520        0.00000000    
  0.15311023944374180       0.39174889103318028        0.00000000    
  0.13459450493128813       0.39523737160237093        0.00000000    
  0.11203603859438425       0.39655665469278795        0.00000000    
   8.6462702947221512E-002  0.39673090257144999        0.00000000    
   5.8762884163954088E-002  0.39644352170606767        0.00000000    
   2.9709866465874299E-002  0.39611573898684382        0.00000000    
   0.0000000000000000       0.39598286803953398        0.00000000    
   0.0000000000000000       0.42148157685299403        0.00000000    
  -2.1049602148959710E-002  0.42127468033911597        0.00000000    
  -4.1363119323077818E-002  0.42055840964818947        0.00000000    
  -6.0178705738975387E-002  0.41905730707939898        0.00000000    
  -7.6681145706757103E-002  0.41626262848486506        0.00000000    
  -8.9993879431987889E-002  0.41140297717968849        0.00000000    
  -9.9169322652924413E-002  0.40333823362844884        0.00000000    
 -0.10324409327354318       0.39048957582439769        0.00000000    
 -0.10130961429676071       0.37068382088327495        0.00000000    
  -9.2775694583766805E-002  0.34110824189698818        0.00000000    
  -7.7697041114751120E-002  0.29827890900477544        0.00000000    
  -5.7619741554879166E-002  0.23856608038316804        0.00000000    
  -3.5848734641980934E-002  0.15958529858043752        0.00000000    
  -1.7465857797183106E-002   6.1792427060929279E-002   0.00000000    
  -8.0294277939602192E-003  -4.9375063310235452E-002   0.00000000    
  -1.0856080816204275E-002 -0.16386243630939806        0.00000000    