 <VTKFile type="UnstructuredGrid" version="0.1" byte_order="BigEndian">
 <UnstructuredGrid>
 <Piece NumberOfPoints="        2601 " NumberOfCells="        2500 ">
 <PointData Scalars="scalars">
 <DataArray type="Float32" NumberOfComponents="3" Name="Velocity" Format="ascii">
   0.0000000000000000        0.0000000000000000        0.00000000    
  -8.8152164177594569E-002   0.0000000000000000        0.00000000    
 -0.17678798979684263        0.0000000000000000        0.00000000    
 -0.26639187965212230        0.0000000000000000        0.00000000    
 -0.35745062801805122        0.0000000000000000        0.00000000    
 -0.45044603445436321        0.0000000000000000        0.00000000    
 -0.54584413102085494        0.0000000000000000        0.00000000    
 -0.64406786035790886        0.0000000000000000        0.00000000    
 -0.74543260541429990        0.0000000000000000        0.00000000    
 -0.85006544329132350        0.0000000000000000        0.00000000    
 -0.95764521975082029        0.0000000000000000        0.00000000    
  -1.0671669507630317        0.0000000000000000        0.00000000    
  -1.1760031802407278        0.0000000000000000        0.00000000    
  -1.2793362530500560        0.0000000000000000        0.00000000    
  -1.3678959356434774        0.0000000000000000        0.00000000    
  -1.4286153803211004        0.0000000000000000        0.00000000    
  -1.4444725333993387        0.0000000000000000        0.00000000    
  -1.4023791838824862        0.0000000000000000        0.00000000    
  -1.3041272022031876        0.0000000000000000        0.00000000    
  -1.1598774584110907        0.0000000000000000        0.00000000    
 -0.98412081317668698        0.0000000000000000        0.00000000    
 -0.78698953152197404        0.0000000000000000        0.00000000    
 -0.57635953274115026        0.0000000000000000        0.00000000    
 -0.36719050001298964        0.0000000000000000        0.00000000    
 -0.17135837386820202        0.0000000000000000        0.00000000    
   8.9841666283793763E-003   0.0000000000000000        0.00000000    
  0.18741751878829624        0.0000000000000000        0.00000000    
  0.37945824356802899        0.0000000000000000        0.00000000    
  0.58360581646623666        0.0000000000000000        0.00000000    
  0.78964551063316246        0.0000000000000000        0.00000000    
  0.98575163845226388        0.0000000000000000        0.00000000    
   1.1617552984152064        0.0000000000000000        0.00000000    
   1.3054098649179950        0.0000000000000000        0.00000000    
   1.4027815734280360        0.0000000000000000        0.00000000    
   1.4440401217706349        0.0000000000000000        0.00000000    
   1.4276687289053318        0.0000000000000000        0.00000000    
   1.3666729800171364        0.0000000000000000        0.00000000    
   1.2778893996058329        0.0000000000000000        0.00000000    
   1.1744309578061205        0.0000000000000000        0.00000000    
   1.0656019264093768        0.0000000000000000        0.00000000    
  0.95618139279557979        0.0000000000000000        0.00000000    
  0.84873560431750172        0.0000000000000000        0.00000000    
  0.74425743172904613        0.0000000000000000        0.00000000    
  0.64305033018158986        0.0000000000000000        0.00000000    
  0.54498387326211895        0.0000000000000000        0.00000000    
  0.44973883187112967        0.0000000000000000        0.00000000    
  0.35689189432134388        0.0000000000000000        0.00000000    
  0.26597719298009814        0.0000000000000000        0.00000000    
  0.17651364494097010        0.0000000000000000        0.00000000    
   8.8015661577770549E-002   0.0000000000000000        0.00000000    
   0.0000000000000000        0.0000000000000000        0.00000000    
   0.0000000000000000        8.7486332821929233E-002   0.00000000    
  -8.7052555848794400E-002   8.7719875536313732E-002   0.00000000    
 -0.17455658446366223        8.8421466682610986E-002   0.00000000    
 -0.26296429504636476        8.9591621033362018E-002   0.00000000    
 -0.35272447548810337        9.1228793959719806E-002   0.00000000    
 -0.44427955296246041        9.3323174615907986E-002   0.00000000    
 -0.53804819657557890        9.5845048219491358E-002   0.00000000    
 -0.63439780113796407        9.8729765752584991E-002   0.00000000    
 -0.73359513268372400       0.10183378764653664        0.00000000    
 -0.83568839155855834       0.10489378177543550        0.00000000    
 -0.94037336851754350       0.10737243910831112        0.00000000    
  -1.0465664242186477       0.10834380849689089        0.00000000    
  -1.1520499372220410       0.10597738649583555        0.00000000    
  -1.2520529679146397        9.7360158838571645E-002   0.00000000    
  -1.3386402581897445        7.7788242160377857E-002   0.00000000    
  -1.3981886499637699        4.2481005249318297E-002   0.00000000    
  -1.4144119253595644       -1.0399186772511303E-002   0.00000000    
  -1.3725478516312770       -7.3556870100921157E-002   0.00000000    
  -1.2695010365336359      -0.12774058408262842        0.00000000    
  -1.1223319180773434      -0.16367695839316584        0.00000000    
 -0.94934128687514363      -0.18506901889555771        0.00000000    
 -0.75913218793391291      -0.20227008023126733        0.00000000    
 -0.55951078236313079      -0.20798005599444969        0.00000000    
 -0.36136720282295443      -0.19933129459324384        0.00000000    
 -0.17203230516154303      -0.18583446774770038        0.00000000    
   7.5100832306849987E-003 -0.17404919700467297        0.00000000    
  0.18568053970676390      -0.18255334658908048        0.00000000    
  0.37235020465503327      -0.19615577949903110        0.00000000    
  0.56691605334716988      -0.20255637751493982        0.00000000    
  0.76321062130031969      -0.19977661371131269        0.00000000    
  0.95221287657454523      -0.18533048625034065        0.00000000    
   1.1248483319105624      -0.16330732893752947        0.00000000    
   1.2712134375929349      -0.12671102264689449        0.00000000    
   1.3730430032424263       -7.2488908190320236E-002   0.00000000    
   1.4140952575226866       -9.8205274220994412E-003   0.00000000    
   1.3974806595797240        4.2807908749250383E-002   0.00000000    
   1.3375518434584912        7.8118067619032408E-002   0.00000000    
   1.2506488626720049        9.7569922044184867E-002   0.00000000    
   1.1505274319214172       0.10601139262472224        0.00000000    
   1.0450731505212709       0.10827337292169131        0.00000000    
  0.93896897296291171       0.10725279933693523        0.00000000    
  0.83441482384641485       0.10474860588604003        0.00000000    
  0.73246540617769329       0.10168045717867782        0.00000000    
  0.63341857969207760        9.8574947769567448E-002   0.00000000    
  0.53721842851554458        9.5693140502110724E-002   0.00000000    
  0.44359645433710415        9.3175357814617388E-002   0.00000000    
  0.35218411017042656        9.1085408649510258E-002   0.00000000    
  0.26256279207311528        8.9452097050637433E-002   0.00000000    
  0.17429083193404685        8.8284898477119886E-002   0.00000000    
   8.6920241208594193E-002   8.7585163664951546E-002   0.00000000    
   0.0000000000000000        8.7352227520443831E-002   0.00000000    
   0.0000000000000000       0.17281874344406514        0.00000000    
  -8.3814317871961364E-002  0.17325576543419952        0.00000000    
 -0.16798894113354049       0.17456565512541208        0.00000000    
 -0.25287883968993424       0.17674646751253467        0.00000000    
 -0.33883030095916894       0.17978701392177227        0.00000000    
 -0.42616592921678059       0.18365708365440780        0.00000000    
 -0.51517261963802452       0.18828789455648626        0.00000000    
 -0.60606492576478166       0.19353024897446117        0.00000000    
 -0.69893935689382769       0.19910648284887719        0.00000000    
 -0.79368985700883621       0.20446625739109386        0.00000000    
 -0.88986244995103869       0.20865894031540064        0.00000000    
 -0.98646380644258613       0.20985312020611049        0.00000000    
  -1.0815345250456232       0.20502369931488110        0.00000000    
  -1.1716984473047609       0.18848218182254023        0.00000000    
  -1.2502970899007066       0.15185352206623731        0.00000000    
  -1.3058657870230577        8.3534167372477680E-002   0.00000000    
  -1.3191028589361293       -2.1990669653839119E-002   0.00000000    
  -1.2706118204343493      -0.15231919364820357        0.00000000    
  -1.1636510546564867      -0.25898456420040294        0.00000000    
  -1.0208887443647523      -0.32236315234286289        0.00000000    
 -0.85854244768802346      -0.36171851333969302        0.00000000    
 -0.68638003314952301      -0.38799087100136276        0.00000000    
 -0.51291500927565759      -0.39534447429138175        0.00000000    
 -0.34032258898347295      -0.38270166068951655        0.00000000    
 -0.16866153515911483      -0.36345884045704208        0.00000000    
   4.2793110921120663E-003 -0.34890684728765936        0.00000000    
  0.17740504491262771      -0.35899067473053337        0.00000000    
  0.34839456224204646      -0.37737642046948267        0.00000000    
  0.52028364434718188      -0.38778945119138586        0.00000000    
  0.69322744668971303      -0.38378068914965086        0.00000000    
  0.86371296966130695      -0.36081296004653984        0.00000000    
   1.0245482450199581      -0.32129434563728626        0.00000000    
   1.1660079478580061      -0.25654755899284210        0.00000000    
   1.2716643507714187      -0.15013706229001511        0.00000000    
   1.3195699095142877       -2.1128879889402687E-002   0.00000000    
   1.3057672817935879        8.4534819216264045E-002   0.00000000    
   1.2493798363644495       0.15270877220525531        0.00000000    
   1.1704195627017113       0.18884384227499884        0.00000000    
   1.0802158400296535       0.20506400895068619        0.00000000    
  0.98516833723142061       0.20972393393852767        0.00000000    
  0.88864519207168879       0.20843096194982347        0.00000000    
  0.79257600308107767       0.20419518845655307        0.00000000    
  0.69794495420904279       0.19881575310962576        0.00000000    
  0.60519637672284265       0.19323647167348662        0.00000000    
  0.51443215905975115       0.18799740440734219        0.00000000    
  0.42555316279587435       0.18337348578162957        0.00000000    
  0.33834344706063790       0.17951076393349308        0.00000000    
  0.25251601519527156       0.17647691653392841        0.00000000    
  0.16774817591886973       0.17430130426210397        0.00000000    
   8.3694320720893930E-002  0.17299463033478835        0.00000000    
   0.0000000000000000       0.17255874964512818        0.00000000    
   0.0000000000000000       0.25396162308272346        0.00000000    
  -7.8615212357099423E-002  0.25454378162046615        0.00000000    
 -0.15744941907831098       0.25628783420647272        0.00000000    
 -0.23671225541396851       0.25917838797477610        0.00000000    
 -0.31658783373278376       0.26318349672433006        0.00000000    
 -0.39722445185423783       0.26823420955772298        0.00000000    
 -0.47870195328947668       0.27419632106603564        0.00000000    
 -0.56101078260531378       0.28082431620763071        0.00000000    
 -0.64398603603032123       0.28766345563953527        0.00000000    
 -0.72726382125412181       0.29393892189401216        0.00000000    
 -0.81015108646862299       0.29824748154979847        0.00000000    
 -0.89156659251134718       0.29828278367545824        0.00000000    
 -0.96977871985395780       0.28987821712829392        0.00000000    
  -1.0423871400107856       0.26640133321859188        0.00000000    
  -1.1053524568000648       0.21549964548134923        0.00000000    
  -1.1495551107872286       0.11966069555796555        0.00000000    
  -1.1508523465174831       -4.3581611224571305E-002   0.00000000    
  -1.0954179424642607      -0.23465244234169438        0.00000000    
  -1.0009760995657973      -0.37805269394534313        0.00000000    
 -0.88083703313831596      -0.46619518338196453        0.00000000    
 -0.74027259714832450      -0.52079600797888748        0.00000000    
 -0.59192673352370329      -0.54942045188816957        0.00000000    
 -0.44506924616523946      -0.55423620396346851        0.00000000    
 -0.29959412775006372      -0.54187627212756839        0.00000000    
 -0.15134936501579346      -0.52418885221195266        0.00000000    
   2.0988161000964323E-003 -0.51456467371991932        0.00000000    
  0.15614231858119187      -0.52050089599491900        0.00000000    
  0.30522571914848262      -0.53593792469583457        0.00000000    
  0.45176017262450813      -0.54765028623301704        0.00000000    
  0.59934426849521516      -0.54444655278582721        0.00000000    
  0.74662350223377949      -0.51791065054452823        0.00000000    
  0.88529153277111938      -0.46369875365688584        0.00000000    
   1.0039122924497366      -0.37422239712983862        0.00000000    
   1.0977251891167703      -0.23193029321517039        0.00000000    
   1.1524078555736523       -4.1922621765984276E-002   0.00000000    
   1.1495677383418021       0.12197258529595777        0.00000000    
   1.1045080996419472       0.21671939121119244        0.00000000    
   1.0414743420530843       0.26682857029725016        0.00000000    
  0.96881920229644092       0.28993947039428702        0.00000000    
  0.89060988668486341       0.29810662644972996        0.00000000    
  0.80923221433193937       0.29795042928673127        0.00000000    
  0.72640465915970132       0.29357381300611463        0.00000000    
  0.64320439045673561       0.28726979821076731        0.00000000    
  0.56031652843969926       0.28042022165120850        0.00000000    
  0.47810217289431184       0.27379358603138704        0.00000000    
  0.39672237476835409       0.26783745918742430        0.00000000    
  0.31618561147652513       0.26279463195784347        0.00000000    
  0.23641039824797572       0.25879705735092562        0.00000000    
  0.15724828912569064       0.25591247656186872        0.00000000    
   7.8514653161834425E-002  0.25417231454563499        0.00000000    
   0.0000000000000000       0.25359140497591265        0.00000000    
   0.0000000000000000       0.32910138287873059        0.00000000    
  -7.1731758257285658E-002  0.32975229713817428        0.00000000    
 -0.14350932960073853       0.33169240117404969        0.00000000    
 -0.21535968247871110       0.33488831407750241        0.00000000    
 -0.28727589246718876       0.33926666191878724        0.00000000    
 -0.35918604249390801       0.34469911431030142        0.00000000    
 -0.43093578415625744       0.35095995965700033        0.00000000    
 -0.50223192756709356       0.35766694863169163        0.00000000    
 -0.57262199867490116       0.36418744361229144        0.00000000    
 -0.64139026629691120       0.36946227965992623        0.00000000    
 -0.70756510899262470       0.37178752097819617        0.00000000    
 -0.76972204830814650       0.36831647448308452        0.00000000    
 -0.82618916901133543       0.35452505391687084        0.00000000    
 -0.87452868778323767       0.32270370825448363        0.00000000    
 -0.91265819443883001       0.26029335857330915        0.00000000    
 -0.93474740464778650       0.14116009948622163        0.00000000    
 -0.92601339048868758       -7.2516558252056454E-002   0.00000000    
 -0.88235245543761165      -0.30481161568193338        0.00000000    
 -0.81373619244049500      -0.47095041712408831        0.00000000    
 -0.72275914981815192      -0.58441236650577932        0.00000000    
 -0.61162071773635796      -0.65428049647836073        0.00000000    
 -0.48864895493568422      -0.68725239702348928        0.00000000    
 -0.36409746418637784      -0.68781204583228328        0.00000000    
 -0.24546115364022109      -0.67241066924599102        0.00000000    
 -0.12601203674143377      -0.66134714629908586        0.00000000    
   1.2833832898550329E-003 -0.65814879330163667        0.00000000    
  0.12890442839251912      -0.65858013664467918        0.00000000    
  0.24954862498720573      -0.66758509338132033        0.00000000    
  0.36950155639124183      -0.68248931313372241        0.00000000    
  0.49471307472788734      -0.68240194946170774        0.00000000    
  0.61762643168982467      -0.65014665205096922        0.00000000    
  0.72774070244142075      -0.58024385687724089        0.00000000    
  0.81758818411246392      -0.46614433239738096        0.00000000    
  0.88524471518712677      -0.30147657634722053        0.00000000    
  0.92729278602407716       -6.9105856773573823E-002   0.00000000    
  0.93474068704521363       0.14454927271612078        0.00000000    
  0.91241997252421880       0.26152431036934293        0.00000000    
  0.87421110500648014       0.32326754116652995        0.00000000    
  0.82574584649413063       0.35462217090589082        0.00000000    
  0.76922309233013741       0.36815727542923687        0.00000000    
  0.70703289278861825       0.37146893722398333        0.00000000    
  0.64085960311267109       0.36905743932261253        0.00000000    
  0.57211188791403689       0.36373544879569270        0.00000000    
  0.50176130908067773       0.35719430787458123        0.00000000    
  0.43051592730241511       0.35048053550411939        0.00000000    
  0.35882656190520862       0.34422097356012588        0.00000000    
  0.28698243366260162       0.33879331098853621        0.00000000    
  0.21513672672047304       0.33442060154643938        0.00000000    
  0.14335932073518567       0.33122975139280714        0.00000000    
   7.1656421068233320E-002  0.32929287982629085        0.00000000    
   0.0000000000000000       0.32864321868372470        0.00000000    
   0.0000000000000000       0.39673750910927524        0.00000000    
  -6.3516361754168693E-002  0.39736553499634586        0.00000000    
 -0.12689011813915879       0.39923173488397845        0.00000000    
 -0.18995656320616847       0.40226702167066136        0.00000000    
 -0.25249892363280269       0.40634776736648975        0.00000000    
 -0.31422767320398620       0.41125815008390054        0.00000000    
 -0.37473261553771514       0.41665684821604809        0.00000000    
 -0.43346267169031294       0.42199749836956540        0.00000000    
 -0.48964409467734188       0.42642962475993978        0.00000000    
 -0.54227993256576068       0.42862543849033524        0.00000000    
 -0.59000535792743913       0.42652586193554420        0.00000000    
 -0.63120359091010692       0.41693453436844485        0.00000000    
 -0.66370699458224347       0.39487874326985578        0.00000000    
 -0.68543231105265912       0.35241607483793902        0.00000000    
 -0.69334671156617933       0.27662611511585161        0.00000000    
 -0.68794686334114530       0.14151791568081648        0.00000000    
 -0.67761654449885300       -9.1937502638814117E-002   0.00000000    
 -0.65905585375016151      -0.34761109848870630        0.00000000    
 -0.61902728159323850      -0.53679457687095544        0.00000000    
 -0.55769602077461689      -0.67087532318052212        0.00000000    
 -0.47917653491458551      -0.75747427495485342        0.00000000    
 -0.38480462461272036      -0.80140111144719395        0.00000000    
 -0.28315739857650390      -0.79986086748454166        0.00000000    
 -0.18999452846886569      -0.77215984426966922        0.00000000    
 -0.10191810470873090      -0.76912232678661119        0.00000000    
   7.4453700251022074E-004 -0.78033049160165835        0.00000000    
  0.10383279404111509      -0.76710655769096669        0.00000000    
  0.19282624830978032      -0.76869513833015668        0.00000000    
  0.28709245538370243      -0.79559722306902114        0.00000000    
  0.38958122567420866      -0.79699314778771502        0.00000000    
  0.48416121733819129      -0.75304762231080302        0.00000000    
  0.56265402686622679      -0.66594878410400216        0.00000000    
  0.62345910906594326      -0.53109078176896074        0.00000000    
  0.66134171595030156      -0.34206807173496512        0.00000000    
  0.67804497410350084       -8.7264491064651686E-002   0.00000000    
  0.68860558101213820       0.14470060415776345        0.00000000    
  0.69412461034998330       0.27817587496583362        0.00000000    
  0.68580027573184110       0.35315039484072591        0.00000000    
  0.66389102721568949       0.39511504509474088        0.00000000    
  0.63121890564294703       0.41686050196829655        0.00000000    
  0.58991651641062282       0.42625952811377832        0.00000000    
  0.54211700444176836       0.42824088190709725        0.00000000    
  0.48944250346633783       0.42597545694136024        0.00000000    
  0.43324445513828830       0.42150416376088889        0.00000000    
  0.37451829311196833       0.41614346222892895        0.00000000    
  0.31403071992082043       0.41073622582729202        0.00000000    
  0.25233062991221533       0.40582351865875926        0.00000000    
  0.18982421571837363       0.40174375769696358        0.00000000    
  0.12679925015417831       0.39871021020654451        0.00000000    
   6.3470102654262603E-002  0.39684571207395430        0.00000000    
   0.0000000000000000       0.39621815428994278        0.00000000    
   0.0000000000000000       0.45573450706235119        0.00000000    
  -5.4364482078490081E-002  0.45625056456706359        0.00000000    
 -0.10840496286106009       0.45776212597878341        0.00000000    
 -0.16176850083946825       0.46016779673276542        0.00000000    
 -0.21404838241339255       0.46327041682889175        0.00000000    
 -0.26474430756354683       0.46676135707880900        0.00000000    
 -0.31323910762961010       0.47015456435473496        0.00000000    
 -0.35873830858070138       0.47273021885765354        0.00000000    
 -0.40025739424103696       0.47339859100940668        0.00000000    
 -0.43652760548444980       0.47056369783114427        0.00000000    
 -0.46604069892820532       0.46182729603239220        0.00000000    
 -0.48690309991070679       0.44369490692914720        0.00000000    
 -0.49711470963730647       0.41083455481924208        0.00000000    
 -0.49439855968103530       0.35547059878887843        0.00000000    
 -0.47760591308957340       0.26469451291872365        0.00000000    
 -0.45009028825614256       0.12053521394100587        0.00000000    
 -0.43124457039143854      -0.10012966243749100        0.00000000    
 -0.42940591816632084      -0.35981710295287378        0.00000000    
 -0.42001376197934381      -0.57400812588797090        0.00000000    
 -0.39170409824695018      -0.72330152835147721        0.00000000    
 -0.34954431319387974      -0.82572617330739417        0.00000000    
 -0.29160292869047671      -0.88546134263837384        0.00000000    
 -0.21877912725864929      -0.89027049789377777        0.00000000    
 -0.14518351625583953      -0.84850752379841188        0.00000000    
  -7.6026384480633188E-002 -0.85000702729399447        0.00000000    
   3.8739611434533222E-004 -0.87852104054254132        0.00000000    
   7.7067591162155336E-002 -0.84868328802977044        0.00000000    
  0.14698563915124627      -0.84602873496648701        0.00000000    
  0.22145769655272329      -0.88700071999608909        0.00000000    
  0.29500309596822383      -0.88162265494493741        0.00000000    
  0.35330926559077469      -0.82130311134040224        0.00000000    
  0.39543624594530630      -0.71831191761128121        0.00000000    
  0.42328378219184531      -0.56737909601544623        0.00000000    
  0.43167428576941869      -0.35205169211067183        0.00000000    
  0.43273894230489113       -9.5047606023865583E-002   0.00000000    
  0.45147240170272346       0.12319082784345077        0.00000000    
  0.47897490871813653       0.26666528393527217        0.00000000    
  0.49548738346546034       0.35647401365092768        0.00000000    
  0.49788778223199620       0.41130144509563976        0.00000000    
  0.48744491536246093       0.44379026120266363        0.00000000    
  0.46639220327448910       0.46168604296871207        0.00000000    
  0.43674240580621859       0.47026485119524203        0.00000000    
  0.40037009795361889       0.47299947300801298        0.00000000    
  0.35878253225766232       0.47226693987317159        0.00000000    
  0.31323819392419056       0.46965236605966054        0.00000000    
  0.26471852684734026       0.46623574305559301        0.00000000    
  0.21401185162465047       0.46273194845160215        0.00000000    
  0.16173250046566137       0.45962227583282939        0.00000000    
  0.10837687046524325       0.45721347079670926        0.00000000    
   5.4349297938393451E-002  0.45570035505747886        0.00000000    
   0.0000000000000000       0.45518409563850731        0.00000000    
   0.0000000000000000       0.50536010275834287        0.00000000    
  -4.4685290806675618E-002  0.50567586525239572        0.00000000    
  -8.8886925846015652E-002  0.50658006446682369        0.00000000    
 -0.13209370454079164       0.50792129797823460        0.00000000    
 -0.17373402289438145       0.50943823814003208        0.00000000    
 -0.21315095291721026       0.51070751299461270        0.00000000    
 -0.24955955834037827       0.51111293528063972        0.00000000    
 -0.28202861579859667       0.50974122686542311        0.00000000    
 -0.30942587286404644       0.50530504534003629        0.00000000    
 -0.33043059480611248       0.49593329532127489        0.00000000    
 -0.34348055433578589       0.47902186921580187        0.00000000    
 -0.34690162247610457       0.45078491975002138        0.00000000    
 -0.33897794841453344       0.40603359413942391        0.00000000    
 -0.31853775066308626       0.33711632848628215        0.00000000    
 -0.28645942589214413       0.23417893050770897        0.00000000    
 -0.24826881693800848        8.5345685718826239E-002   0.00000000    
 -0.21774150561538702      -0.11431203019854183        0.00000000    
 -0.21178988987361874      -0.35342385570620216        0.00000000    
 -0.22302464267068173      -0.57855762210852613        0.00000000    
 -0.22787914599612577      -0.74220603913860017        0.00000000    
 -0.22177741903428838      -0.85508202289002189        0.00000000    
 -0.20594377995321211      -0.92987936770276858        0.00000000    
 -0.17175616409966146      -0.95286274421387673        0.00000000    
 -0.11618250840243290      -0.91508339833711738        0.00000000    
  -5.4795462832797556E-002 -0.91397418166006117        0.00000000    
   9.5901139344887424E-005 -0.94585787991559944        0.00000000    
   5.5133964518345062E-002 -0.91306355634195135        0.00000000    
  0.11704004837574855      -0.91347145023259113        0.00000000    
  0.17340404111544402      -0.95039290926581554        0.00000000    
  0.20807208857932619      -0.92644276690051741        0.00000000    
  0.22407249575265509      -0.85078842744469185        0.00000000    
  0.22977236948829227      -0.73665230401127202        0.00000000    
  0.22456060160186128      -0.57167332464131415        0.00000000    
  0.21434886640611314      -0.34593507782109484        0.00000000    
  0.22084243638202222      -0.10872129954370170        0.00000000    
  0.25061877068054744        8.8355861061668595E-002   0.00000000    
  0.28831807025932593       0.23629956731409701        0.00000000    
  0.32015886428951745       0.33848758010580510        0.00000000    
  0.34026587372217298       0.40678158719609636        0.00000000    
  0.34789600693650857       0.45112396926614878        0.00000000    
  0.34423565604461681       0.47906651481296220        0.00000000    
  0.33099119498578466       0.49577975562471943        0.00000000    
  0.30983629445193334       0.50501289564982954        0.00000000    
  0.28232214358537949       0.50935635345426522        0.00000000    
  0.24976578081251702       0.51066477415715428        0.00000000    
  0.21329178019417130       0.51021812405159683        0.00000000    
  0.17382758988774505       0.50892155508388770        0.00000000    
  0.13215291708239610       0.50738781583758008        0.00000000    
   8.8921447926854524E-002  0.50603615305129845        0.00000000    
   4.4701041849330374E-002  0.50512677480092616        0.00000000    
   0.0000000000000000       0.50480913922093595        0.00000000    
   0.0000000000000000       0.54527147440905199        0.00000000    
  -3.4869444363355234E-002  0.54532029221893130        0.00000000    
  -6.9132690024699905E-002  0.54540158154929363        0.00000000    
 -0.10215659550967139       0.54533152823152253        0.00000000    
 -0.13325673743307312       0.54476953103480552        0.00000000    
 -0.16166774360945230       0.54320521881195361        0.00000000    
 -0.18652425823378599       0.53988141159782299        0.00000000    
 -0.20683213916468099       0.53375075057529620        0.00000000    
 -0.22146893786770558       0.52333063858508078        0.00000000    
 -0.22917814568672076       0.50662269266829263        0.00000000    
 -0.22863655923374698       0.48084190557775164        0.00000000    
 -0.21857459536452545       0.44232504847780751        0.00000000    
 -0.19806165392542982       0.38605791146098323        0.00000000    
 -0.16728103280783807       0.30587225570259319        0.00000000    
 -0.12843214048471521       0.19449685300543157        0.00000000    
  -8.7879319244643275E-002   4.6285406107452527E-002   0.00000000    