 <VTKFile type="UnstructuredGrid" version="0.1" byte_order="BigEndian">
 <UnstructuredGrid>
 <Piece NumberOfPoints="        2601 " NumberOfCells="        2500 ">
 <PointData Scalars="scalars">
 <DataArray type="Float32" NumberOfComponents="3" Name="Velocity" Format="ascii">
   0.0000000000000000        0.0000000000000000        0.00000000    
  -7.7596736770474989E-002   0.0000000000000000        0.00000000    
 -0.15576570272994497        0.0000000000000000        0.00000000    
 -0.23508658971178192        0.0000000000000000        0.00000000    
 -0.31615650496127651        0.0000000000000000        0.00000000    
 -0.39958477041568707        0.0000000000000000        0.00000000    
 -0.48599230375733027        0.0000000000000000        0.00000000    
 -0.57596095941143932        0.0000000000000000        0.00000000    
 -0.66996589639467286        0.0000000000000000        0.00000000    
 -0.76814666065911696        0.0000000000000000        0.00000000    
 -0.86988107859891506        0.0000000000000000        0.00000000    
 -0.97284684134191146        0.0000000000000000        0.00000000    
  -1.0707356707741504        0.0000000000000000        0.00000000    
  -1.1515225545284749        0.0000000000000000        0.00000000    
  -1.1983244395460215        0.0000000000000000        0.00000000    
  -1.1945739291395758        0.0000000000000000        0.00000000    
  -1.1362000820132181        0.0000000000000000        0.00000000    
  -1.0345488010578894        0.0000000000000000        0.00000000    
 -0.90224815432815686        0.0000000000000000        0.00000000    
 -0.75188277313382790        0.0000000000000000        0.00000000    
 -0.60000884268026833        0.0000000000000000        0.00000000    
 -0.45754064660338178        0.0000000000000000        0.00000000    
 -0.32613690750675645        0.0000000000000000        0.00000000    
 -0.20476289977880721        0.0000000000000000        0.00000000    
  -9.3488449262444567E-002   0.0000000000000000        0.00000000    
   8.5002297338168820E-003   0.0000000000000000        0.00000000    
  0.10726227832556463        0.0000000000000000        0.00000000    
  0.21430526680827849        0.0000000000000000        0.00000000    
  0.33260580981970256        0.0000000000000000        0.00000000    
  0.45875265429589590        0.0000000000000000        0.00000000    
  0.59713244249405673        0.0000000000000000        0.00000000    
  0.74873984846461494        0.0000000000000000        0.00000000    
  0.90015121253536767        0.0000000000000000        0.00000000    
   1.0328085067907589        0.0000000000000000        0.00000000    
   1.1341660397738629        0.0000000000000000        0.00000000    
   1.1922011465464293        0.0000000000000000        0.00000000    
   1.1962225483533027        0.0000000000000000        0.00000000    
   1.1501231175186239        0.0000000000000000        0.00000000    
   1.0697260315458819        0.0000000000000000        0.00000000    
  0.97196969115241416        0.0000000000000000        0.00000000    
  0.86910529624099975        0.0000000000000000        0.00000000    
  0.76744693052890089        0.0000000000000000        0.00000000    
  0.66935996741538095        0.0000000000000000        0.00000000    
  0.57544176635960576        0.0000000000000000        0.00000000    
  0.48555896233578655        0.0000000000000000        0.00000000    
  0.39923183230805614        0.0000000000000000        0.00000000    
  0.31587986431017645        0.0000000000000000        0.00000000    
  0.23488255931140556        0.0000000000000000        0.00000000    
  0.15563124794193162        0.0000000000000000        0.00000000    
   7.7530037189295992E-002   0.0000000000000000        0.00000000    
   0.0000000000000000        0.0000000000000000        0.00000000    
   0.0000000000000000        7.6876328694867657E-002   0.00000000    
  -7.6428074261812584E-002   7.7149973919435649E-002   0.00000000    
 -0.15338271725684113        7.7975126258478772E-002   0.00000000    
 -0.23139680378862434        7.9361337744444593E-002   0.00000000    
 -0.31100925952741648        8.1322522588622520E-002   0.00000000    
 -0.39276824021934886        8.3866211289383222E-002   0.00000000    
 -0.47720711680117889        8.6981684198404657E-002   0.00000000    
 -0.56482007879671159        9.0601416166396359E-002   0.00000000    
 -0.65595488145002678        9.4539802473340012E-002   0.00000000    
 -0.75065696089242862        9.8344515393074705E-002   0.00000000    
 -0.84825493151791331       0.10098934096623430        0.00000000    
 -0.94659279085973769       0.10031574044835681        0.00000000    
  -1.0405733166449713        9.1555062669830350E-002   0.00000000    
  -1.1188299462208537        6.7489883244188795E-002   0.00000000    
  -1.1637358570045295        2.4219325344325800E-002   0.00000000    
  -1.1566899932371446       -3.5014310847809357E-002   0.00000000    
  -1.0942670526869533       -8.5781114328757818E-002   0.00000000    
 -0.99302714574558337      -0.11710873595148884        0.00000000    
 -0.86705734614750851      -0.14116039477491035        0.00000000    
 -0.72570186914611978      -0.15055916518122797        0.00000000    
 -0.58215054103992248      -0.14486480599702406        0.00000000    
 -0.44559414390265600      -0.13415850539245217        0.00000000    
 -0.31922546476383390      -0.12361263369118446        0.00000000    
 -0.20313157322796338      -0.11385398714950380        0.00000000    
  -9.5178042298964358E-002 -0.10537271474480372        0.00000000    
   6.5256149602839850E-003  -9.8318339797714052E-002   0.00000000    
  0.10622037653888994      -0.10013718737330993        0.00000000    
  0.21131879177050988      -0.11200293422945308        0.00000000    
  0.32486539459182717      -0.11984293020527133        0.00000000    
  0.44751788125324610      -0.12895511816136868        0.00000000    
  0.58122129333037575      -0.14312679715115861        0.00000000    
  0.72409476788533156      -0.15135279419673328        0.00000000    
  0.86562021147428203      -0.14158271424730823        0.00000000    
  0.99158313094283490      -0.11703618308783864        0.00000000    
   1.0924850341013801       -8.5221914677424307E-002   0.00000000    
   1.1546555093494404       -3.4982304191051965E-002   0.00000000    
   1.1621425501764044        2.3475250612216135E-002   0.00000000    
   1.1177023082021327        6.7065835128689272E-002   0.00000000    
   1.0396379770881308        9.1397014635539078E-002   0.00000000    
  0.94576915658687422       0.10022959425371569        0.00000000    
  0.84749412641199806       0.10091129024314847        0.00000000    
  0.74998801946099436        9.8254650287214806E-002   0.00000000    
  0.65536934823365178        9.4452458273786497E-002   0.00000000    
  0.56432100764123827        9.0515562430177651E-002   0.00000000    
  0.47678903358601499        8.6900698409301050E-002   0.00000000    
  0.39242760105087976        8.3789349757909110E-002   0.00000000    
  0.31074199147244252        8.1249715585998833E-002   0.00000000    
  0.23119936228935475        7.9291707973540265E-002   0.00000000    
  0.15325264791065257        7.7907808294738368E-002   0.00000000    
   7.6363445832446294E-002   7.7084095788942278E-002   0.00000000    
   0.0000000000000000        7.6810878843591571E-002   0.00000000    
   0.0000000000000000       0.15147755041283126        0.00000000    
  -7.3004439291103285E-002  0.15198269581348806        0.00000000    
 -0.14640751956950865       0.15350155735414400        0.00000000    
 -0.22060335722870211       0.15604625985575304        0.00000000    
 -0.29597757343860631       0.15962570035149504        0.00000000    
 -0.37288947205223311       0.16423533922698180        0.00000000    
 -0.45165417057077423       0.16981755570600154        0.00000000    
 -0.53248400641919869       0.17620976417103212        0.00000000    
 -0.61542253016594783       0.18300619906983323        0.00000000    
 -0.70016973199762789       0.18932881379316216        0.00000000    
 -0.78588984577158705       0.19332453485833900        0.00000000    
 -0.87070995996690037       0.19113992031041122        0.00000000    
 -0.95134179854501266       0.17534463715546519        0.00000000    
  -1.0204176651506058       0.13103418066503658        0.00000000    
  -1.0569593865229368        4.2124015995135211E-002   0.00000000    
  -1.0405265149848852       -7.6396406381295745E-002   0.00000000    
 -0.97737408978742735      -0.16997308026217745        0.00000000    
 -0.88526859863630991      -0.22626088379662343        0.00000000    
 -0.77624406373918620      -0.26700131125154231        0.00000000    
 -0.65765902345213778      -0.28465750647650589        0.00000000    
 -0.53334708575854051      -0.27862847809762420        0.00000000    
 -0.41109073222196202      -0.25920633589408665        0.00000000    
 -0.29873703637743892      -0.23728593230377762        0.00000000    
 -0.19608344183091844      -0.21892692944257447        0.00000000    
  -9.7739369528375225E-002 -0.20659613077380592        0.00000000    
   2.2500941826839090E-003 -0.19878679973676622        0.00000000    
  0.10316768742285030      -0.20027983702332960        0.00000000    
  0.20124708031712191      -0.21503684728934275        0.00000000    
  0.30230714343767601      -0.23141443717801252        0.00000000    
  0.41443378025192495      -0.25216148792892273        0.00000000    
  0.53627880027545283      -0.27546761060291930        0.00000000    
  0.65911854344471488      -0.28472394535491008        0.00000000    
  0.77641578884961537      -0.26703299196321312        0.00000000    
  0.88465109575070022      -0.22578286110499926        0.00000000    
  0.97630412054285465      -0.16902887992868690        0.00000000    
   1.0395613072358800       -7.6601696383947648E-002   0.00000000    
   1.0562484008938720        4.0921838733544769E-002   0.00000000    
   1.0197797978028726       0.13052944803498970        0.00000000    
  0.95062613908596594       0.17515276739484428        0.00000000    
  0.86996458752457961       0.19100560363090058        0.00000000    
  0.78522053815250692       0.19315576072102988        0.00000000    
  0.69957628767533520       0.18916194519691928        0.00000000    
  0.61490597510647249       0.18283556094324663        0.00000000    
  0.53204106470242341       0.17604712900804395        0.00000000    
  0.45128175059647230       0.16966184170492876        0.00000000    
  0.37258475163977184       0.16408806233763126        0.00000000    
  0.29573734223693721       0.15948544841733314        0.00000000    
  0.22042553782754115       0.15591183669226724        0.00000000    
  0.14628994468780110       0.15337141614044628        0.00000000    
   7.2946025721226063E-002  0.15185503873308348        0.00000000    
   0.0000000000000000       0.15135083754034334        0.00000000    
   0.0000000000000000       0.22168673649003262        0.00000000    
  -6.7564406329310739E-002  0.22234372422825580        0.00000000    
 -0.13533525844710462       0.22431582989498933        0.00000000    
 -0.20350358472166849       0.22759751917092583        0.00000000    
 -0.27222398021602318       0.23217041967695859        0.00000000    
 -0.34159054571758901       0.23797044957542296        0.00000000    
 -0.41159269001078636       0.24485065190347408        0.00000000    
 -0.48206335805938505       0.25247853324434377        0.00000000    
 -0.55258163225696644       0.26019558631227829        0.00000000    
 -0.62237864504831664       0.26668499572951682        0.00000000    
 -0.69014733244388271       0.26945850381286429        0.00000000    
 -0.75406518836651493       0.26374526499971623        0.00000000    
 -0.81129256351368995       0.24059984164343715        0.00000000    
 -0.85897233607554468       0.18253593984241814        0.00000000    
 -0.88049526554306135        4.8688214417630993E-002   0.00000000    
 -0.86179320327105158      -0.11809425374252876        0.00000000    
 -0.81436601614820758      -0.23885357678248378        0.00000000    
 -0.74590787615171983      -0.31794276028294921        0.00000000    
 -0.66115200402684116      -0.36909858979295451        0.00000000    
 -0.56820083054477333      -0.39409519313385977        0.00000000    
 -0.46710846399504014      -0.39459385072104547        0.00000000    
 -0.36077314607790861      -0.37183139186969261        0.00000000    
 -0.26382327792833998      -0.33396319765806703        0.00000000    
 -0.18238970097876847      -0.30633559333677496        0.00000000    
  -9.8432460713891626E-002 -0.30148753823355484        0.00000000    
  -1.2808212684175919E-004 -0.30218799544734809        0.00000000    
   9.9188945634659423E-002 -0.29711202419563448        0.00000000    
  0.18413776918821925      -0.30123163672478426        0.00000000    
  0.26617570482311970      -0.32831640547660007        0.00000000    
  0.36459529308354094      -0.36580450391704944        0.00000000    
  0.47159279953756450      -0.39066587965943050        0.00000000    
  0.57171281102195581      -0.39248418628961096        0.00000000    
  0.66312960161652013      -0.36798553830856934        0.00000000    
  0.74655431548284601      -0.31648908340321369        0.00000000    
  0.81425401553590404      -0.23767412436722626        0.00000000    
  0.86172050719090287      -0.11867886202803160        0.00000000    
  0.88056237102608337        4.7471331758368179E-002   0.00000000    
  0.85870210285666260       0.18231013310231506        0.00000000    
  0.81071296525546999       0.24051620325456180        0.00000000    
  0.75349086900651174       0.26352715116210346        0.00000000    
  0.68963469293348190       0.26923578223331784        0.00000000    
  0.62191625494615732       0.26644596193923381        0.00000000    
  0.55217632045210618       0.25996314587238256        0.00000000    
  0.48171010917307217       0.25225202418068909        0.00000000    
  0.41129289344770381       0.24463483777794562        0.00000000    
  0.34134204792966955       0.23776427450981030        0.00000000    
  0.27202681164335057       0.23197324752599616        0.00000000    
  0.20335633761010241       0.22740768299290209        0.00000000    
  0.13523764446541656       0.22413122407516203        0.00000000    
   6.7515669636316319E-002  0.22216249318084277        0.00000000    
   0.0000000000000000       0.22150644734857916        0.00000000    
   0.0000000000000000       0.28568065911094953        0.00000000    
  -6.0471993082816040E-002  0.28638750901011278        0.00000000    
 -0.12092367129778878       0.28849588316608876        0.00000000    
 -0.18130643825869777       0.29196986630721122        0.00000000    
 -0.24151197403077510       0.29672531013419046        0.00000000    
 -0.30133173159115501       0.30260318734282643        0.00000000    
 -0.36040581098331059       0.30929544145887788        0.00000000    
 -0.41815302434421175       0.31625292680926287        0.00000000    
 -0.47368528565045781       0.32247302756288904        0.00000000    
 -0.52569987128295248       0.32622044928685678        0.00000000    
 -0.57240218701660162       0.32439534620230248        0.00000000    
 -0.61140403144162192       0.31172941151972344        0.00000000    
 -0.64003454372018787       0.27847486595805609        0.00000000    
 -0.65493810025108123       0.20724552192468429        0.00000000    
 -0.65938145471496090        4.9946184949505451E-002   0.00000000    
 -0.65627250727983921      -0.14116197492490951        0.00000000    
 -0.63570461188282890      -0.28377968565811762        0.00000000    
 -0.59367121278845636      -0.38350694343362818        0.00000000    
 -0.53712901225772469      -0.44483123761339194        0.00000000    
 -0.47105388352546518      -0.47738760960017906        0.00000000    
 -0.39721000198436601      -0.48623644680157063        0.00000000    
 -0.31281911062764617      -0.47091377072850588        0.00000000    
 -0.22908066527801416      -0.41556789407800732        0.00000000    
 -0.16176062451060802      -0.37348327032240597        0.00000000    
  -9.1358240249474559E-002 -0.38869824344511245        0.00000000    
  -5.3631710772757471E-004 -0.40410235558559854        0.00000000    
   9.0262199936744336E-002 -0.38531197253144800        0.00000000    
  0.16153035800836796      -0.36924742845535868        0.00000000    
  0.23066580123075686      -0.41147274967745379        0.00000000    
  0.31575402222093207      -0.46615473190669943        0.00000000    
  0.40084072001439575      -0.48239862242297615        0.00000000    
  0.47478678089858639      -0.47481628089356287        0.00000000    
  0.54032026999046223      -0.44260248557936788        0.00000000    
  0.59578893657476450      -0.38076427478560093        0.00000000    
  0.63639944224907374      -0.28170789154310938        0.00000000    
  0.65648640315560713      -0.14219729495331679        0.00000000    
  0.65979264428819606        4.8842918720655756E-002   0.00000000    
  0.65490153248352478       0.20769119502469957        0.00000000    
  0.63969626702782878       0.27833082193153080        0.00000000    
  0.61112201159478996       0.31151016765611944        0.00000000    
  0.57210077978804075       0.32413146225610295        0.00000000    
  0.52542172129241194       0.32594907127071249        0.00000000    
  0.47342263567381365       0.32220035308587514        0.00000000    
  0.41791784504704277       0.31598711822556552        0.00000000    
  0.36019808250413093       0.30903802374853862        0.00000000    
  0.30115627676489026       0.30235504346691999        0.00000000    
  0.24136945475991048       0.29648584205273659        0.00000000    
  0.18119891594242887       0.29173740767212697        0.00000000    
  0.12085146084779491       0.28826895483353981        0.00000000    
   6.0435851420229232E-002  0.28616365442495040        0.00000000    
   0.0000000000000000       0.28545811517671943        0.00000000    
   0.0000000000000000       0.34203711388038321        0.00000000    
  -5.2175149123885614E-002  0.34267944382313137        0.00000000    
 -0.10409960991514998       0.34458133451517553        0.00000000    
 -0.15548550356566732       0.34765432228074294        0.00000000    
 -0.20596795035382745       0.35173008275688389        0.00000000    
 -0.25505649373077521       0.35650796077363744        0.00000000    
 -0.30208066466619315       0.36149016229985859        0.00000000    
 -0.34611652039489260       0.36584251755904934        0.00000000    
 -0.38591733132448147       0.36821774984241146        0.00000000    
 -0.41981931809871975       0.36639353823017856        0.00000000    
 -0.44572346086737807       0.35682995241145732        0.00000000    
 -0.46106067756257429       0.33363510080327013        0.00000000    
 -0.46332488560942908       0.28746512942358832        0.00000000    
 -0.45081066140493342       0.20064582202481432        0.00000000    
 -0.43956043634521791        4.9740249407314564E-002   0.00000000    
 -0.44460860736684599      -0.13901557459836400        0.00000000    
 -0.44795673472662773      -0.30314461512100865        0.00000000    
 -0.43496241849945250      -0.41916849653563620        0.00000000    
 -0.40740640610517814      -0.49326666791717311        0.00000000    
 -0.36969069582377495      -0.53274179104005415        0.00000000    
 -0.32764401040485785      -0.54677160708746719        0.00000000    
 -0.27893450052841851      -0.54347778819485815        0.00000000    
 -0.21390804522786686      -0.49176755278478262        0.00000000    
 -0.14020153111492673      -0.43830893689236999        0.00000000    
  -7.2189161168245392E-002 -0.46228609996075165        0.00000000    
  -7.3785621385600490E-004 -0.49278650028221976        0.00000000    
   7.1084727272826886E-002 -0.45924770168320989        0.00000000    
  0.13977743688250557      -0.43527133625201331        0.00000000    
  0.21425420085653635      -0.48905982007260385        0.00000000    
  0.28047503967168624      -0.53987549756050102        0.00000000    
  0.33024413322673379      -0.54353242525783141        0.00000000    
  0.37260084019564299      -0.52998402114141319        0.00000000    
  0.41040797637278104      -0.49077414360837163        0.00000000    
  0.43757838728199594      -0.41523046456002927        0.00000000    
  0.44969401321913427      -0.29996660001038539        0.00000000    
  0.44556641994002233      -0.13989671484386210        0.00000000    
  0.43980063773644773        4.9003120990852342E-002   0.00000000    
  0.45095675367431942       0.20126722389468868        0.00000000    
  0.46352089740250108       0.28739714611410139        0.00000000    
  0.46107889395827056       0.33346133483498697        0.00000000    
  0.44569473604623733       0.35658691921959168        0.00000000    
  0.41974106789166743       0.36612757765066245        0.00000000    
  0.38582294880871454       0.36794029026221614        0.00000000    
  0.34601188423939205       0.36556427707256350        0.00000000    
  0.30197919311413979       0.36121456110234335        0.00000000    
  0.25496283031092193       0.35623791862792642        0.00000000    
  0.20588844067667794       0.35146542367399558        0.00000000    
  0.15542287425860182       0.34739517734716546        0.00000000    
  0.10405677751643663       0.34432598373058476        0.00000000    
   5.2153309185407511E-002  0.34242695046544036        0.00000000    
   0.0000000000000000       0.34178522714048282        0.00000000    
   0.0000000000000000       0.38978895183479162        0.00000000    
  -4.3156205564376229E-002  0.39026014753612726        0.00000000    
  -8.5856821455347190E-002  0.39162689429743802        0.00000000    
 -0.12760639995482312       0.39374542113024463        0.00000000    
 -0.16782565045676562       0.39634186718195463        0.00000000    
 -0.20580789946100317       0.39896815405733055        0.00000000    
 -0.24066278482691963       0.40091020983319836        0.00000000    
 -0.27127250434355732       0.40106922884682777        0.00000000    
 -0.29622730704304839       0.39774783472352493        0.00000000    
 -0.31383787558622867       0.38837719016966804        0.00000000    
 -0.32212104573480660       0.36903479398457367        0.00000000    
 -0.31921908214322131       0.33386669248535777        0.00000000    
 -0.30378410378602694       0.27406394809928436        0.00000000    
 -0.27962443743990961       0.17737429647561664        0.00000000    
 -0.25824713048913828        4.0385435143330650E-002   0.00000000    
 -0.25274465664986151      -0.13011385804320674        0.00000000    
 -0.26463517135232945      -0.29680647456066345        0.00000000    
 -0.27803085485418633      -0.42510405183504196        0.00000000    
 -0.27892013428696272      -0.51399662921169476        0.00000000    
 -0.26944068188004078      -0.55920577733536436        0.00000000    
 -0.25609670642763122      -0.57569706617951044        0.00000000    
 -0.23831112427884540      -0.58104620755163905        0.00000000    
 -0.19801681502656196      -0.55951869330560089        0.00000000    
 -0.12788053300085078      -0.51439939623985209        0.00000000    
  -5.7207571952297698E-002 -0.52487977271808972        0.00000000    
  -6.0493289568737136E-004 -0.55824556804309566        0.00000000    
   5.6309598243167933E-002 -0.52252454508078117        0.00000000    
  0.12751534267544878      -0.51189174811315252        0.00000000    
  0.19794175709023928      -0.55734139042892128        0.00000000    
  0.23889399309729709      -0.57876579770957881        0.00000000    
  0.25755139970897228      -0.57306741225704849        0.00000000    
  0.27129636996755946      -0.55654949630826456        0.00000000    
  0.28067078699944248      -0.51138900689337485        0.00000000    
  0.27994278274797241      -0.42105679182408429        0.00000000    
  0.26714163409113867      -0.29345353219412562        0.00000000    
  0.25461295462506306      -0.12975229464164506        0.00000000    
  0.25892703580912080        4.0311607303013544E-002   0.00000000    
  0.28008094225927332       0.17764990738868544        0.00000000    
  0.30429065856258242       0.27424178617165512        0.00000000    
  0.31956347604778135       0.33378706144289494        0.00000000    
  0.32233345211550823       0.36887655463013647        0.00000000    
  0.31396887773737120       0.38815736540039375        0.00000000    
  0.29629631203510626       0.39750236882716977        0.00000000    
  0.27130413990556995       0.40080661777398324        0.00000000    
  0.24066853107393577       0.40064170395781434        0.00000000    
  0.20580015050402517       0.39869670368563126        0.00000000    
  0.16781106896917780       0.39607129513504780        0.00000000    
  0.12759128609183046       0.39347584118799389        0.00000000    
   8.5844608569212319E-002  0.39135928065699571        0.00000000    
   4.3149572904365205E-002  0.38999334436853128        0.00000000    
   0.0000000000000000       0.38952290232648384        0.00000000    
   0.0000000000000000       0.42844137291616008        0.00000000    
  -3.3884668540763399E-002  0.42864972730802470        0.00000000    
  -6.7156734295253387E-002  0.42921112280782703        0.00000000    
  -9.9165769708829427E-002  0.42992093294993178        0.00000000    
 -0.12918793293977837       0.43040889519356090        0.00000000    
 -0.15638494235663153       0.43008151016030077        0.00000000    
 -0.17977639251915195       0.42804431449037100        0.00000000    
 -0.19820429109017237       0.42297386702927731        0.00000000    
 -0.21035463152216483       0.41294946400628652        0.00000000    
 -0.21478226754812343       0.39521488954605005        0.00000000    
 -0.21017436645564486       0.36587348789965812        0.00000000    
 -0.19568987379517430       0.31964266742109371        0.00000000    
 -0.17247757797695401       0.24964182628531012        0.00000000    
 -0.14549676273514878       0.15065706865953596        0.00000000    
 -0.12189124991957911        2.2120982453999825E-002   0.00000000    
 -0.11108428846069544      -0.12815769029394067        0.00000000    
 -0.11913496602775522      -0.27882028474269033        0.00000000    
 -0.13921148484822021      -0.40961686213089166        0.00000000    
 -0.16073862980709314      -0.50706621200873447        0.00000000    
 -0.17617243788652920      -0.56018065455876087        0.00000000    
 -0.18062687315269857      -0.58361054490048903        0.00000000    
 -0.17482894730379275      -0.59671505500625466        0.00000000    
 -0.15571750687461877      -0.60325442107555716        0.00000000    
 -0.11308772321773217      -0.58342857043139840        0.00000000    
  -5.4410710198440904E-002 -0.58519941383094232        0.00000000    
  -6.1345627510046657E-004 -0.60832465851041062        0.00000000    
   5.3651376415950046E-002 -0.58362365711235942        0.00000000    
  0.11289155473451498      -0.58123740011296332        0.00000000    
  0.15575826145296939      -0.60128769587084530        0.00000000    
  0.17508469479837660      -0.59509698725456417        0.00000000    
  0.18119057252557366      -0.58149832540099555        0.00000000    
  0.17704630021711507      -0.55771809711735698        0.00000000    
  0.16167961491190314      -0.50422695372381310        0.00000000    
  0.14055762325918048      -0.40636766707728167        0.00000000    
  0.12116546466229172      -0.27594817319238496        0.00000000    
  0.11306981732563956      -0.12663216185488441        0.00000000    
  0.12324592918381905        2.2702431821107410E-002   0.00000000    
  0.14635779701729365       0.15099444788894092        0.00000000    
  0.17314197497379691       0.24990448336736043        0.00000000    
  0.19625577574220213       0.31973887326621797        0.00000000    
  0.21059217642637873       0.36581949117623802        0.00000000    
  0.21508771120751471       0.39508459269783813        0.00000000    
  0.21057461230922472       0.41276193024091523        0.00000000    
  0.19835938192837879       0.42275558322145873        0.00000000    
  0.17988468055424245       0.42780417348815403        0.00000000    
  0.15645832714667740       0.42983009338234784        0.00000000    
  0.12923670302132043       0.43014973681100122        0.00000000    
   9.9196543352420133E-002  0.42965846817427894        0.00000000    
   6.7174741815256289E-002  0.42894625916552837        0.00000000    
   3.3892871961914109E-002  0.42838439803234241        0.00000000    
   0.0000000000000000       0.42817542029451844        0.00000000    
   0.0000000000000000       0.45793666577905495        0.00000000    
  -2.4778661066199574E-002  0.45781883068241536        0.00000000    
  -4.8846797729198782E-002  0.45738328842094217        0.00000000    
  -7.1465906416657218E-002  0.45637797789391660        0.00000000    
  -9.1840752533297529E-002  0.45434992589775158        0.00000000    
 -0.10910123790555420       0.45059904037341347        0.00000000    
 -0.12228491584972102       0.44410297835713447        0.00000000    
 -0.13035769770028649       0.43341694947936976        0.00000000    
 -0.13225049204398304       0.41655058231104047        0.00000000    
 -0.12701952268277897       0.39081150426672512        0.00000000    
 -0.11408755005404796       0.35273806670345365        0.00000000    
  -9.3851924302607331E-002  0.29805903913140397        0.00000000    
  -6.8572885467274108E-002  0.22273519182377804        0.00000000    
  -4.2346199005561809E-002  0.12435727785153576        0.00000000    
  -2.1657210929464044E-002   4.1273554340428148E-003   0.00000000    
  -1.3055854579506612E-002 -0.12957128925902342        0.00000000    