 <VTKFile type="UnstructuredGrid" version="0.1" byte_order="BigEndian">
 <UnstructuredGrid>
 <Piece NumberOfPoints="        2601 " NumberOfCells="        2500 ">
 <PointData Scalars="scalars">
 <DataArray type="Float32" NumberOfComponents="3" Name="Velocity" Format="ascii">
   0.0000000000000000        0.0000000000000000        0.00000000    
  -7.7103142322666227E-002   0.0000000000000000        0.00000000    
 -0.15328362310601609        0.0000000000000000        0.00000000    
 -0.22761842585968284        0.0000000000000000        0.00000000    
 -0.29918421290826303        0.0000000000000000        0.00000000    
 -0.36705869964209564        0.0000000000000000        0.00000000    
 -0.43032327688732180        0.0000000000000000        0.00000000    
 -0.48806810635777448        0.0000000000000000        0.00000000    
 -0.53939953537664953        0.0000000000000000        0.00000000    
 -0.58345059555086887        0.0000000000000000        0.00000000    
 -0.61939511617262677        0.0000000000000000        0.00000000    
 -0.64646453254696512        0.0000000000000000        0.00000000    
 -0.66396963466939107        0.0000000000000000        0.00000000    
 -0.67132305142137849        0.0000000000000000        0.00000000    
 -0.66806758328230065        0.0000000000000000        0.00000000    
 -0.65390127858791236        0.0000000000000000        0.00000000    
 -0.62870828968733927        0.0000000000000000        0.00000000    
 -0.59258054501917989        0.0000000000000000        0.00000000    
 -0.54584374546648873        0.0000000000000000        0.00000000    
 -0.48906745509118510        0.0000000000000000        0.00000000    
 -0.42307686702758768        0.0000000000000000        0.00000000    
 -0.34894344213290718        0.0000000000000000        0.00000000    
 -0.26797437856474415        0.0000000000000000        0.00000000    
 -0.18168000926523911        0.0000000000000000        0.00000000    
  -9.1738424170778904E-002   0.0000000000000000        0.00000000    
   5.6839795674327189E-005   0.0000000000000000        0.00000000    
   9.1851368404042802E-002   0.0000000000000000        0.00000000    
  0.18179075896373589        0.0000000000000000        0.00000000    
  0.26808159419604655        0.0000000000000000        0.00000000    
  0.34904591740264418        0.0000000000000000        0.00000000    
  0.42317361121217634        0.0000000000000000        0.00000000    
  0.48915768654207037        0.0000000000000000        0.00000000    
  0.54592693195432618        0.0000000000000000        0.00000000    
  0.59265637626813705        0.0000000000000000        0.00000000    
  0.62877667720771291        0.0000000000000000        0.00000000    
  0.65396231919841352        0.0000000000000000        0.00000000    
  0.66812152853845563        0.0000000000000000        0.00000000    
  0.67137027569648955        0.0000000000000000        0.00000000    
  0.66401059160036935        0.0000000000000000        0.00000000    
  0.64649973268895533        0.0000000000000000        0.00000000    
  0.61942508585362666        0.0000000000000000        0.00000000    
  0.58347586687553865        0.0000000000000000        0.00000000    
  0.53942061109403572        0.0000000000000000        0.00000000    
  0.48808546232996264        0.0000000000000000        0.00000000    
  0.43033733560652448        0.0000000000000000        0.00000000    
  0.36706983670139520        0.0000000000000000        0.00000000    
  0.29919274013068275        0.0000000000000000        0.00000000    
  0.22762459917657987        0.0000000000000000        0.00000000    
  0.15328763166150136        0.0000000000000000        0.00000000    
   7.7105114948274184E-002   0.0000000000000000        0.00000000    
   0.0000000000000000        0.0000000000000000        0.00000000    
   0.0000000000000000        7.7374476535074205E-002   0.00000000    
  -7.7183915494018235E-002   7.6914044819879124E-002   0.00000000    
 -0.15344843705453085        7.5532420910428527E-002   0.00000000    
 -0.22787355656083405        7.3228964433543708E-002   0.00000000    
 -0.29953872704196599        7.0003455729527944E-002   0.00000000    
 -0.36752370737898954        6.5857473379591386E-002   0.00000000    
 -0.43091138512205640        6.0796242912526811E-002   0.00000000    
 -0.48879230212679792        5.4830963999373206E-002   0.00000000    
 -0.54027211511600226        4.7981737453913646E-002   0.00000000    
 -0.58448194712264201        4.0280613066380130E-002   0.00000000    
 -0.62059191080461140        3.1775328368830014E-002   0.00000000    
 -0.64782889900687157        2.2532532043208355E-002   0.00000000    
 -0.66549650873666399        1.2641634276714993E-002   0.00000000    
 -0.67300047471801072        2.2172015032745551E-003   0.00000000    
 -0.66987333389667858       -8.5983588705527570E-003   0.00000000    
 -0.65580517261088711       -1.9634656980051179E-002   0.00000000    
 -0.63066852925781747       -3.0693526592903458E-002   0.00000000    
 -0.59454869952372147       -4.1552600537438714E-002   0.00000000    
 -0.54776147976132927       -5.1969972847410235E-002   0.00000000    
 -0.49087417329346866       -6.1692179313730069E-002   0.00000000    
 -0.42470742697116998       -7.0463711518275809E-002   0.00000000    
 -0.35033730701573884       -7.8038390761688531E-002   0.00000000    
 -0.26907451211965239       -8.4192025948965951E-002   0.00000000    
 -0.18244128979678698       -8.8734124550332347E-002   0.00000000    
  -9.2127388046850334E-002  -9.1519921600013668E-002   0.00000000    
   5.6931008432817779E-005  -9.2458220944867400E-002   0.00000000    
   9.2240493543116392E-002  -9.1518429721216182E-002   0.00000000    
  0.18255218296598930       -8.8731209566958361E-002   0.00000000    
  0.26918181596279805       -8.4187817538533730E-002   0.00000000    
  0.35043982366957027       -7.8033071620482175E-002   0.00000000    
  0.42480414240490416       -7.0457498353291709E-002   0.00000000    
  0.49096432013775526       -6.1685311154452839E-002   0.00000000    
  0.54784451841217929       -5.1962687848951049E-002   0.00000000    
  0.59462433670731540       -4.1545128828390523E-002   0.00000000    
  0.63073668279005779       -3.0686070920548730E-002   0.00000000    
  0.65586595232725731       -1.9627391925125637E-002   0.00000000    
  0.66992700564095498       -8.5914205974475851E-003   0.00000000    
  0.67304742002129658        2.2237106538280367E-003   0.00000000    
  0.66553719652819265        1.2647649983694737E-002   0.00000000    
  0.64786384069619263        2.2538019229072320E-002   0.00000000    
  0.62062164526058106        3.1780278878952746E-002   0.00000000    
  0.58450700223417185        4.0285040258660094E-002   0.00000000    
  0.54029300460579455        4.7985671492272126E-002   0.00000000    
  0.48880949424045422        5.4834447083945345E-002   0.00000000    
  0.43092530903506776        6.0799325283162453E-002   0.00000000    
  0.36753473187121893        6.5860212091197162E-002   0.00000000    
  0.29954716837630008        7.0005910014235895E-002   0.00000000    
  0.22787966488289901        7.3231197068150733E-002   0.00000000    
  0.15345240409156555        7.5534494323773516E-002   0.00000000    
   7.7185866919727494E-002   7.6916022949238216E-002   0.00000000    
   0.0000000000000000        7.7376422458529381E-002   0.00000000    
   0.0000000000000000       0.15490571988181928        0.00000000    
  -7.7420030024600003E-002  0.15398814880880812        0.00000000    
 -0.15393047527656079       0.15123468539803100        0.00000000    
 -0.22862069253160547       0.14664343806649557        0.00000000    
 -0.30057825043369868       0.14021311138470002        0.00000000    
 -0.36888960628380535       0.13194555421626869        0.00000000    
 -0.43264186466296178       0.12184949776179406        0.00000000    
 -0.49092718424436410       0.10994534442461432        0.00000000    
 -0.54284928057399984        9.6270664034335457E-002   0.00000000    
 -0.58753337325941568        8.0887007747089790E-002   0.00000000    
 -0.62413955570975632        6.3886475167409640E-002   0.00000000    
 -0.65187947906465071        4.5399690836516397E-002   0.00000000    
 -0.67003794727842736        2.5601946075321635E-002   0.00000000    
 -0.67799610345019179        4.7204030645214131E-003   0.00000000    
 -0.67526073508264883       -1.6962679890481818E-002   0.00000000    
 -0.66149120277256301       -3.9106641313693194E-002   0.00000000    
 -0.63653273947007760       -6.1315262147774045E-002   0.00000000    
 -0.60044102789350573       -8.3141020961526646E-002   0.00000000    
 -0.55351182374762498      -0.10409659236915426        0.00000000    
 -0.49629415807285709      -0.12366914924657048        0.00000000    
 -0.42960569599635018      -0.14134056844995885        0.00000000    
 -0.35452517930745259      -0.15661078994623759        0.00000000    
 -0.27238362381917031      -0.16902259745720921        0.00000000    
 -0.18473075778453960      -0.17818826235377044        0.00000000    
  -9.3298130981924257E-002 -0.18381093374330915        0.00000000    
   5.7195891712376082E-005 -0.18570547634727638        0.00000000    
   9.3411747362196471E-002 -0.18380790994063984        0.00000000    
  0.18484206209634360      -0.17818235489839040        0.00000000    
  0.27249121277585503      -0.16901407683703473        0.00000000    
  0.35462780037079400      -0.15660002793134170        0.00000000    
  0.42970233535100538      -0.14132801522891214        0.00000000    
  0.49638403224883798      -0.12365528737410172        0.00000000    
  0.55359441926406006      -0.10408191422962658        0.00000000    
  0.60051606929780421       -8.3125986812760053E-002   0.00000000    
  0.63660018301841959       -6.1300287406338951E-002   0.00000000    
  0.66155119542249119       -3.9092070612005293E-002   0.00000000    
  0.67531357801355552       -1.6948789571415167E-002   0.00000000    
  0.67804221607069948        4.7334169221433997E-003   0.00000000    
  0.67007782052325571        2.5613953964324348E-002   0.00000000    
  0.65191365437542470        4.5410629878278652E-002   0.00000000    
  0.62416858037790779        6.3896331699258707E-002   0.00000000    
  0.58755779375504991        8.0895812436239584E-002   0.00000000    
  0.54286960721792477        9.6278480050889015E-002   0.00000000    
  0.49094389595811361       0.10995225783890232        0.00000000    
  0.43265538235258871       0.12185561202905694        0.00000000    
  0.36890030257190126       0.13195098185511608        0.00000000    
  0.30058643262406176       0.14021797399932942        0.00000000    
  0.22862661177995564       0.14664785832698338        0.00000000    
  0.15393431696003138       0.15123879003691038        0.00000000    
   7.7421920062180946E-002  0.15399206297134510        0.00000000    
   0.0000000000000000       0.15490957123687923        0.00000000    
   0.0000000000000000       0.23273798624735001        0.00000000    
  -7.7792784011336491E-002  0.23137003672863721        0.00000000    
 -0.15469268931832947       0.22726448813124156        0.00000000    
 -0.22980480180953250       0.22041730486407052        0.00000000    
 -0.30223088103738655       0.21082422104000687        0.00000000    
 -0.37106860238054484       0.19848486046701863        0.00000000    
 -0.43541298805852718       0.18340817352694033        0.00000000    
 -0.49435912244195063       0.16561945969141836        0.00000000    
 -0.54700829777772797       0.14516915647861231        0.00000000    
 -0.59247658121285929       0.12214222632738697        0.00000000    
 -0.62990750856081190        9.6669700039351075E-002   0.00000000    
 -0.65848874530067247        6.8938958368345044E-002   0.00000000    
 -0.67747239288214067        3.9206125224537820E-002   0.00000000    
 -0.68620097913511835        7.8042957423175253E-003   0.00000000    
 -0.68413455904847009       -2.4847033142135450E-002   0.00000000    
 -0.67088475948817883       -5.8240293590146520E-002   0.00000000    
 -0.64624457348200914       -9.1778934364904752E-002   0.00000000    
 -0.61022498855883933      -0.12478732191972650        0.00000000    
 -0.56307924275743426      -0.15652391945739796        0.00000000    
 -0.50533174044791840      -0.18620566957119289        0.00000000    
 -0.43778551993107023      -0.21303741135148277        0.00000000    
 -0.36153048364496410      -0.23624818170617751        0.00000000    
 -0.27792393600166609      -0.25513199139115528        0.00000000    
 -0.18856809997008211      -0.26908625372649458        0.00000000    
  -9.5260876449142690E-002 -0.27765147639622123        0.00000000    
   5.7654624557096342E-005 -0.28053747557789688        0.00000000    
   9.5375344811508861E-002 -0.27764683630353265        0.00000000    
  0.18868011555504721      -0.26907719771489375        0.00000000    
  0.27803198884439184      -0.25511894122924844        0.00000000    
  0.36163328437978859      -0.23623172923095170        0.00000000    
  0.43788200632860802      -0.21301825254378567        0.00000000    
  0.50542114510342584      -0.18618456636348538        0.00000000    
  0.56316106710861658      -0.15650162368791407        0.00000000    
  0.61029901175238221      -0.12476455012969501        0.00000000    
  0.64631080781834793       -9.1756310550040590E-002   0.00000000    
  0.67094341771049226       -5.8218344947847542E-002   0.00000000    
  0.68418600813073716       -2.4826161902965996E-002   0.00000000    
  0.68624569064567797        7.8237965636134017E-003   0.00000000    
  0.67751091248936357        3.9224077430564920E-002   0.00000000    
  0.65852164241260214        6.8955273524106742E-002   0.00000000    
  0.62993536532862937        9.6684371445602976E-002   0.00000000    
  0.59249995021223445       0.12215530808473901        0.00000000    
  0.54702770660700195       0.14518074945040035        0.00000000    
  0.49437504277245875       0.16562969958101176        0.00000000    
  0.43542584651796240       0.18341721721566936        0.00000000    
  0.37107875966638082       0.19849288126108022        0.00000000    
  0.30223864419798985       0.21083139872391859        0.00000000    
  0.22981041164817198       0.22042382632076471        0.00000000    
  0.15469632925672491       0.22727053904053671        0.00000000    
   7.7794573537130346E-002  0.23137580668073759        0.00000000    
   0.0000000000000000       0.23274366137770483        0.00000000    
   0.0000000000000000       0.31099065808422854        0.00000000    
  -7.8271100850004383E-002  0.30918252859074524        0.00000000    
 -0.15567320658681941       0.30375528599187540        0.00000000    
 -0.23133427299604700       0.29470096426630349        0.00000000    
 -0.30437630156246082       0.28200994732230250        0.00000000    
 -0.37391399751956989       0.26567582875036655        0.00000000    
 -0.43905398781383564       0.24570285770812733        0.00000000    
 -0.49889714364741722       0.22211534130380656        0.00000000    
 -0.55254225336500151       0.19496883444525159        0.00000000    
 -0.59909415056923876       0.16436400234877882        0.00000000    
 -0.63767455013037699       0.13046052298368901        0.00000000    
 -0.66743803545808811        9.3494128154888043E-002   0.00000000    
 -0.68759269087482155        5.3790527620293287E-002   0.00000000    
 -0.69742502327840239        1.1782079641533889E-002   0.00000000    
 -0.69633166873838304       -3.1983325621573043E-002   0.00000000    
 -0.68385172659172155       -7.6832478383789024E-002   0.00000000    
 -0.65970727332917423      -0.12197012601457967        0.00000000    
 -0.62383704151005248      -0.16648468575994577        0.00000000    
 -0.57643761192657161      -0.20937047125930597        0.00000000    
 -0.51798697832682583      -0.24955599534732542        0.00000000    
 -0.44927210682629892      -0.28594692054653797        0.00000000    
 -0.37138796864943141      -0.31747659105262305        0.00000000    
 -0.28573525757336515      -0.34316158578195960        0.00000000    
 -0.19398432804995777      -0.36216217063528960        0.00000000    
  -9.8033895762870027E-002 -0.37383196153678561        0.00000000    
   5.8308787488535337E-005 -0.37776647255413670        0.00000000    
   9.8149607741044906E-002 -0.37382557496040764        0.00000000    
  0.19409734719438121      -0.36214971549583713        0.00000000    
  0.28584397722834648      -0.34314367251557293        0.00000000    
  0.37149099163420962      -0.31745405290290474        0.00000000    
  0.44936835240130196      -0.28592075566518710        0.00000000    
  0.51807566743389677      -0.24952726000205566        0.00000000    
  0.57651830205748289      -0.20934022834549351        0.00000000    
  0.62390957812590075      -0.16645390644002267        0.00000000    
  0.65977176219682954      -0.12193967312260473        0.00000000    
  0.68390847649798414       -7.6803043741517432E-002   0.00000000    
  0.69638113493786280       -3.1955447533846035E-002   0.00000000    
  0.69746776427172585        1.1808036393855116E-002   0.00000000    
  0.68762930934775457        5.3814338320738578E-002   0.00000000    
  0.66746916016626645        9.3515701077988553E-002   0.00000000    
  0.63770078505987260       0.13047986674708140        0.00000000    
  0.59911607907277475       0.16438120594505581        0.00000000    
  0.55256040073134982       0.19498404688703286        0.00000000    
  0.49891199088768201       0.22212875034986046        0.00000000    
  0.43906594766128898       0.24571468150585082        0.00000000    
  0.37392342975446130       0.26568629822314122        0.00000000    
  0.30438349743225540       0.28201930681935045        0.00000000    
  0.23133946839150177       0.29470945770766777        0.00000000    
  0.15567657358416168       0.30376316321634134        0.00000000    
   7.8272755956408965E-002  0.30919003453268923        0.00000000    
   0.0000000000000000       0.31099804185840740        0.00000000    
   0.0000000000000000       0.38974557114199210        0.00000000    
  -7.8811490041237511E-002  0.38751142400931188        0.00000000    
 -0.15678567330799226       0.38080389699886330        0.00000000    
 -0.23308061898769181       0.36960958244492870        0.00000000    
 -0.30684596393162311       0.35390991926476162        0.00000000    
 -0.37721914237206733       0.33368794717248745        0.00000000    
 -0.44332411488768309       0.30893691726496170        0.00000000    
 -0.50427046031891953       0.27967199723399366        0.00000000    
 -0.55915673521038467       0.24594477625689562        0.00000000    
 -0.60707511011433168       0.20785954455462929        0.00000000    
 -0.64712191464053881       0.16559339542743887        0.00000000    
 -0.67841121912444169       0.11941525462695596        0.00000000    
 -0.70009514876099910        6.9709193752753848E-002   0.00000000    
 -0.71138983973371084        1.6991642806263828E-002   0.00000000    
 -0.71160674811870195       -3.8068130705048678E-002   0.00000000    
 -0.70019243961877609       -9.4640721426555843E-002   0.00000000    
 -0.67676825156704434      -0.15172932348228696        0.00000000    
 -0.64117998286850475      -0.20818278969532714        0.00000000    
 -0.59353660499555516      -0.26271397729048662        0.00000000    
 -0.53425725487307885      -0.31394127707773095        0.00000000    
 -0.46409248010323467      -0.36044009051953946        0.00000000    
 -0.38414801368066032      -0.40081083233990772        0.00000000    
 -0.29586995003018052      -0.43375692690719569        0.00000000    
 -0.20102535658355772      -0.45816116096386583        0.00000000    
 -0.10164207253996985      -0.47316549656695611        0.00000000    
   5.9193167648053765E-005 -0.47822521708683574        0.00000000    
  0.10175942821289229      -0.47315717373126420        0.00000000    
  0.20113971927803886      -0.45814495627108970        0.00000000    
  0.29597951640471099      -0.43373366738403885        0.00000000    
  0.38425130157548965      -0.40078166529608994        0.00000000    
  0.46418833816324007      -0.36040634728651616        0.00000000    
  0.53434493815520290      -0.31390438883695193        0.00000000    
  0.59361572747556834      -0.26267532749240441        0.00000000    
  0.64125050472416578      -0.20814366311863169        0.00000000    
  0.67683040443139186      -0.15169080110587485        0.00000000    
  0.70024666160329574       -9.4603686425748346E-002   0.00000000    
  0.71165362310380520       -3.8033222267879356E-002   0.00000000    
  0.71143002207047479        1.7023987065416114E-002   0.00000000    
  0.70012933426906410        6.9738736297228571E-002   0.00000000    
  0.67844008228354091       0.11944191182148842        0.00000000    
  0.64714611019556867       0.16561721230386761        0.00000000    
  0.60709522785181946       0.20788065928304514        0.00000000    
  0.55917331816165960       0.24596339349158147        0.00000000    
  0.50428397526324276       0.27968836962177751        0.00000000    
  0.44333497342178768       0.30895132152555566        0.00000000    
  0.37722768285360803       0.33370068184905027        0.00000000    
  0.30685246968557228       0.35392128465221956        0.00000000    
  0.23308530805386043       0.36961988715948774        0.00000000    
  0.15678871024959351       0.38081344347428314        0.00000000    
   7.8812981310713209E-002  0.38752051826482059        0.00000000    
   0.0000000000000000       0.38975451297993641        0.00000000    
   0.0000000000000000       0.46903516310581200        0.00000000    
  -7.9358413300430530E-002  0.46639289188315430        0.00000000    
 -0.15791931152228100       0.45845866694140508        0.00000000    
 -0.23487923507324712       0.44521083772491604        0.00000000    
 -0.30942266161350096       0.42661859095872989        0.00000000    
 -0.38071759153748158       0.40264853866622480        0.00000000    
 -0.44791076005074054       0.37327562079588794        0.00000000    
 -0.51012647579161774       0.33849650788624741        0.00000000    
 -0.56646536841189976       0.29834658499146177        0.00000000    
 -0.61600898714645225       0.25292088005338970        0.00000000    
 -0.65782548341090208       0.20239650989919902        0.00000000    
 -0.69098335927977017       0.14706046815018700        0.00000000    
 -0.71456874347672861        8.7334440059254143E-002   0.00000000    
 -0.72771183186613586        2.3805320122890616E-002   0.00000000    
 -0.72962056631550976       -4.2755022730475885E-002   0.00000000    
 -0.71962117049247976      -0.11136639311225020        0.00000000    
 -0.69720983649733648      -0.18083803509076693        0.00000000    
 -0.66210262319974644      -0.24976842316586126        0.00000000    
 -0.61429801053274213      -0.31657519922247507        0.00000000    
 -0.55412129855098302      -0.37953498379123612        0.00000000    
 -0.48227772983734901      -0.43685359537334723        0.00000000    
 -0.39986709401469084      -0.48675129917491250        0.00000000    
 -0.30839772170683621      -0.52756276661836821        0.00000000    
 -0.20974812587830310      -0.55784838200503384        0.00000000    
 -0.10611925719331787      -0.57648930034243073        0.00000000    
   6.0319295743218675E-005 -0.58278112790578351        0.00000000    
  0.10623873511734874      -0.57647878617673132        0.00000000    
  0.20986416998874174      -0.55782794184974882        0.00000000    
  0.30850834057880777      -0.52753352099849216        0.00000000    
  0.39997063247727349      -0.48671475933765851        0.00000000    
  0.48237301104825397      -0.43681153784593646        0.00000000    
  0.55420759234674688      -0.37948924765032016        0.00000000    
  0.61437505102647605      -0.31652758321872704        0.00000000    
  0.66217051633423873      -0.24972051480947557        0.00000000    
  0.69726898965475959      -0.18079118552382939        0.00000000    
  0.71967220123228004      -0.11132163200264995        0.00000000    
  0.72966420494809980       -4.2713101293602188E-002   0.00000000    
  0.72774887344703598        2.3843941084229176E-002   0.00000000    
  0.71459996439072415        8.7369523398970889E-002   0.00000000    
  0.69100951387090925       0.14709197322309236        0.00000000    
  0.65784724710741671       0.20242453739768651        0.00000000    
  0.61602697956881769       0.25294563325313746        0.00000000    
  0.56648011854149660       0.29836834083544012        0.00000000    
  0.51013845137339875       0.33851558422111144        0.00000000    
  0.44792034534373515       0.37329236780996233        0.00000000    
  0.38072511338838949       0.40266331208548223        0.00000000    
  0.30942837737039974       0.42663175842658169        0.00000000    
  0.23488334988582496       0.44522275799264921        0.00000000    
  0.15792197304350367       0.45846970328101638        0.00000000    
   7.9359720324686522E-002  0.46640339644499557        0.00000000    
   0.0000000000000000       0.46904549293257941        0.00000000    
   0.0000000000000000       0.54883000275236415        0.00000000    
  -7.9844533528830294E-002  0.54580209464133800        0.00000000    
 -0.15894006987024795       0.53670699414791911        0.00000000    
 -0.23652978103452205       0.52151324028750956        0.00000000    
 -0.31184201038852016       0.50017293882368852        0.00000000    
 -0.38408255509486372       0.47263075927309262        0.00000000    
 -0.45242963432854938       0.43883474091597563        0.00000000    
 -0.51602771447578577       0.39875227560669557        0.00000000    
 -0.57398641165942077       0.35238949783733031        0.00000000    
 -0.62537854850095376       0.29981481219996198        0.00000000    
 -0.66924634344264722       0.24118795688064359        0.00000000    
 -0.70460839126417629       0.17679003114872430        0.00000000    
 -0.73047799489074872       0.10706094941776167        0.00000000    
 -0.74588587456075894        3.2630861493975941E-002   0.00000000    
 -0.74991568477759663       -4.5640938712349970E-002   0.00000000    
 -0.74174941427516194      -0.12664506473992179        0.00000000    
 -0.72072143348417150      -0.20899760156497849        0.00000000    
 -0.68638786423708098      -0.29104856457636402        0.00000000    
 -0.63859030302428732      -0.37089615900123224        0.00000000    
 -0.57753566736788897      -0.44644430083608483        0.00000000    
 -0.50384520736041949      -0.51547723796200740        0.00000000    
 -0.41861141074557717      -0.57577102147343617        0.00000000    
 -0.32339669096257712      -0.62522607015360288        0.00000000    
 -0.22022531068990142      -0.66200498932807117        0.00000000    
 -0.11150588146557022      -0.68467992638050035        0.00000000    
   6.1740659558538727E-005 -0.69233663628844122        0.00000000    
  0.11162798513808592      -0.68466687390056558        0.00000000    
  0.22034343867240680      -0.66197967798283408        0.00000000    
  0.32350852556400633      -0.62518997710322666        0.00000000    
  0.41871515782140728      -0.57572616113045094        0.00000000    
  0.50393961053135750      -0.51542589978227393        0.00000000    
  0.57762008887194427      -0.44638887626376106        0.00000000    
  0.63866462094997922      -0.37083887454665621        0.00000000    
  0.68645240678948072      -0.29099140193632533        0.00000000    
  0.72077684479923543      -0.20894213506529438        0.00000000    
  0.74179652649339467      -0.12659249904660874        0.00000000    
  0.74995543367057138       -4.5592066424727899E-002   0.00000000    
  0.74591918475948138        3.2675567352454894E-002   0.00000000    
  0.73050576506601761       0.10710130855260053        0.00000000    
  0.70463141806967833       0.17682607012096310        0.00000000    
  0.66926535186120728       0.24121985976314506        0.00000000    
  0.62539414657552006       0.29984287163554540        0.00000000    
  0.57399913183867102       0.35241406763521455        0.00000000    
  0.51603798927087485       0.39877375792122177        0.00000000    
  0.45243783244328284       0.43885354892107997        0.00000000    
  0.38408896779346829       0.47264732056103492        0.00000000    
  0.31184687567100050       0.50018767193445779        0.00000000    
  0.23653327715953654       0.52152656501554773        0.00000000    
  0.15894232980992171       0.53671931550533714        0.00000000    
   7.9845642137886419E-002  0.54581382001435552        0.00000000    
   0.0000000000000000       0.54884152740265990        0.00000000    
   0.0000000000000000       0.62902830306728674        0.00000000    
  -8.0191722980408761E-002  0.62564108566475274        0.00000000    
 -0.15969160285630318       0.61546445399084448        0.00000000    
 -0.23779873786278558       0.59845366090410246        0.00000000    
 -0.31379350883356544       0.57454055228076439        0.00000000    
 -0.38692956877912027       0.54364078349720979        0.00000000    
 -0.45642414464413816       0.50566740392212106        0.00000000    
 -0.52145216943416117       0.46054674859421152        0.00000000    
 -0.58113806569318305       0.40824064809973981        0.00000000    
 -0.63455459180415419       0.34877335327735903        0.00000000    
 -0.68071971747967175       0.28226336322367301        0.00000000    
 -0.71860505288430609       0.20896303309500319        0.00000000    
 -0.74714470432903701       0.12929822572182986        0.00000000    
 -0.76526053065214061        4.3918312350703370E-002   0.00000000    
 -0.77189330121899258       -4.6264789736779270E-002   0.00000000    
 -0.76605200077559299      -0.14002776780985254        0.00000000    