 <VTKFile type="UnstructuredGrid" version="0.1" byte_order="BigEndian">
 <UnstructuredGrid>
 <Piece NumberOfPoints="        2601 " NumberOfCells="        2500 ">
 <PointData Scalars="scalars">
 <DataArray type="Float32" NumberOfComponents="3" Name="Velocity" Format="ascii">
   0.0000000000000000        0.0000000000000000        0.00000000    
  -6.1958543460097604E-002   0.0000000000000000        0.00000000    
 -0.12311048231573750        0.0000000000000000        0.00000000    
 -0.18265265834453476        0.0000000000000000        0.00000000    
 -0.23978912586932780        0.0000000000000000        0.00000000    
 -0.29373568457273125        0.0000000000000000        0.00000000    
 -0.34372526322549574        0.0000000000000000        0.00000000    
 -0.38901486599068608        0.0000000000000000        0.00000000    
 -0.42889356544915824        0.0000000000000000        0.00000000    
 -0.46269286889667799        0.0000000000000000        0.00000000    
 -0.48979773268909221        0.0000000000000000        0.00000000    
 -0.50966068583413571        0.0000000000000000        0.00000000    
 -0.52181534952823694        0.0000000000000000        0.00000000    
 -0.52589357246701685        0.0000000000000000        0.00000000    
 -0.52163969099976126        0.0000000000000000        0.00000000    
 -0.50892848552796355        0.0000000000000000        0.00000000    
 -0.48777708954973170        0.0000000000000000        0.00000000    
 -0.45836012255490627        0.0000000000000000        0.00000000    
 -0.42101524211381236        0.0000000000000000        0.00000000    
 -0.37625094798792719        0.0000000000000000        0.00000000    
 -0.32474192422233300        0.0000000000000000        0.00000000    
 -0.26732545033776806        0.0000000000000000        0.00000000    
 -0.20498437023600277        0.0000000000000000        0.00000000    
 -0.13883015180864042        0.0000000000000000        0.00000000    
  -7.0074394300306167E-002   0.0000000000000000        0.00000000    
   6.0024018447599809E-009   0.0000000000000000        0.00000000    
   7.0074406256085117E-002   0.0000000000000000        0.00000000    
  0.13883016366015463        0.0000000000000000        0.00000000    
  0.20498438208184760        0.0000000000000000        0.00000000    
  0.26732546194413570        0.0000000000000000        0.00000000    
  0.32474193557991310        0.0000000000000000        0.00000000    
  0.37625095892039961        0.0000000000000000        0.00000000    
  0.42101525282029872        0.0000000000000000        0.00000000    
  0.45836013286083827        0.0000000000000000        0.00000000    
  0.48777709914063622        0.0000000000000000        0.00000000    
  0.50892849474378077        0.0000000000000000        0.00000000    
  0.52163969967944113        0.0000000000000000        0.00000000    
  0.52589358050157220        0.0000000000000000        0.00000000    
  0.52181535685643032        0.0000000000000000        0.00000000    
  0.50966069247997536        0.0000000000000000        0.00000000    
  0.48979773902667317        0.0000000000000000        0.00000000    
  0.46269287479449522        0.0000000000000000        0.00000000    
  0.42889357042235066        0.0000000000000000        0.00000000    
  0.38901487024578890        0.0000000000000000        0.00000000    
  0.34372526690638500        0.0000000000000000        0.00000000    
  0.29373568745195666        0.0000000000000000        0.00000000    
  0.23978912805664038        0.0000000000000000        0.00000000    
  0.18265266004832537        0.0000000000000000        0.00000000    
  0.12311048357547369        0.0000000000000000        0.00000000    
   6.1958544111566143E-002   0.0000000000000000        0.00000000    
   0.0000000000000000        0.0000000000000000        0.00000000    
   0.0000000000000000        6.2222041667726866E-002   0.00000000    
  -6.2080653267911540E-002   6.1818622485635195E-002   0.00000000    
 -0.12335587241696512        6.0610002832077334E-002   0.00000000    
 -0.18302351712428810        5.8601284993532891E-002   0.00000000    
 -0.24028841003293852        5.5801542196963760E-002   0.00000000    
 -0.29436663878715774        5.2224711579840627E-002   0.00000000    
 -0.34449100388981219        4.7890697956126570E-002   0.00000000    
 -0.38991751790957324        4.2826883975933761E-002   0.00000000    
 -0.42993385910610021        3.7069621105143884E-002   0.00000000    
 -0.46386883630824483        3.0666123170596613E-002   0.00000000    
 -0.49110460746368478        2.3675974534249945E-002   0.00000000    
 -0.51108914194933619        1.6172974926665352E-002   0.00000000    
 -0.52335210373293406        8.2461114093551301E-003   0.00000000    
 -0.52751923254362920        7.0019548470258727E-007   0.00000000    
 -0.52333049039690915       -8.4418649731571871E-003   0.00000000    
 -0.51065392232065532       -1.6944450757464292E-002   0.00000000    
 -0.48950311446119676       -2.5356296264820780E-002   0.00000000    
 -0.46004683213033387       -3.3515497213043456E-002   0.00000000    
 -0.42262151504642226       -4.1253245380062913E-002   0.00000000    
 -0.37773246456551113       -4.8398645141624355E-002   0.00000000    
 -0.32605674166031839       -5.4784648205519253E-002   0.00000000    
 -0.26843253407818163       -6.0254580598117488E-002   0.00000000    
 -0.20584906264434830       -6.4668518820739596E-002   0.00000000    
 -0.13942326290171025       -6.7910047652837729E-002   0.00000000    
  -7.0376243435513242E-002  -6.9891277910739527E-002   0.00000000    
   6.0339307205271485E-009  -7.0557920594741017E-002   0.00000000    
   7.0376255488116213E-002  -6.9891277846456337E-002   0.00000000    
  0.13942327481838285       -6.7910047476925528E-002   0.00000000    
  0.20584907433867530       -6.4668518768636954E-002   0.00000000    
  0.26843254578687487       -6.0254580425109935E-002   0.00000000    
  0.32605675309132087       -5.4784647852048340E-002   0.00000000    
  0.37773247562121848       -4.8398644694692343E-002   0.00000000    
  0.42262152548390208       -4.1253244982781254E-002   0.00000000    
  0.46004684227213666       -3.3515496914093647E-002   0.00000000    
  0.48950312432281606       -2.5356295568559322E-002   0.00000000    
  0.51065393137987058       -1.6944450276234407E-002   0.00000000    
  0.52333049880627969       -8.4418642684049305E-003   0.00000000    
  0.52751924029957886        7.0078927810448987E-007   0.00000000    
  0.52335211098837642        8.2461120224314125E-003   0.00000000    
  0.51108914868904010        1.6172975511681828E-002   0.00000000    
  0.49110461342503953        2.3675975035841634E-002   0.00000000    
  0.46386884175044385        3.0666123627924931E-002   0.00000000    
  0.42993386417333340        3.7069621947406546E-002   0.00000000    
  0.38991752214821401        4.2826884680352999E-002   0.00000000    
  0.34449100726312032        4.7890698691253689E-002   0.00000000    
  0.29436664160979087        5.2224712197052256E-002   0.00000000    
  0.24028841235284318        5.5801542774393371E-002   0.00000000    
  0.18302351883365597        5.8601285510162561E-002   0.00000000    
  0.12335587353059013        6.0610003355244906E-002   0.00000000    
   6.2080653857230099E-002   6.1818623095041679E-002   0.00000000    
   0.0000000000000000        6.2222042299107556E-002   0.00000000    
   0.0000000000000000       0.12468564496190260        0.00000000    
  -6.2442956757286630E-002  0.12388003488128586        0.00000000    
 -0.12408408836874860       0.12146634674810643        0.00000000    
 -0.18412444466348135       0.11745434740491682        0.00000000    
 -0.24177118365715763       0.11186151667738239        0.00000000    
 -0.29624152804031079       0.10471471478373080        0.00000000    
 -0.34676769928410611        9.6052635101087983E-002   0.00000000    
 -0.39260334818720444        8.5928513115550290E-002   0.00000000    
 -0.43303126391878444        7.4413651525794544E-002   0.00000000    
 -0.46737340542661227        6.1600613282080795E-002   0.00000000    
 -0.49500193327024516        4.7607184363664706E-002   0.00000000    
 -0.51535336455172809        3.2579130866648612E-002   0.00000000    
 -0.52794256176816967        1.6693513485904896E-002   0.00000000    
 -0.53238045875893836        1.5972191858800957E-004   0.00000000    
 -0.52838933393356924       -1.6779356705256411E-002   0.00000000    
 -0.51582201005521211       -3.3849455052995220E-002   0.00000000    
 -0.49467522201135972       -5.0747492964929600E-002   0.00000000    
 -0.46510649660035164       -6.7147914332667161E-002   0.00000000    
 -0.42744122785040412       -8.2710021105225615E-002   0.00000000    
 -0.38218225938514488       -9.7088496237353730E-002   0.00000000    
 -0.33000619994857766      -0.10994518810297746        0.00000000    
 -0.27176093420282771      -0.12096212335467238        0.00000000    
 -0.20844841335235581      -0.12985557823243440        0.00000000    
 -0.14120751347554816      -0.13638829817423223        0.00000000    
  -7.1283989951533566E-002 -0.14038218098486349        0.00000000    
   6.0701282655592825E-009 -0.14172587376460402        0.00000000    
   7.1284001988582660E-002 -0.14038218080211434        0.00000000    
  0.14120752535609715      -0.13638829782435508        0.00000000    
  0.20844842516358231      -0.12985557806262876        0.00000000    
  0.27176094578300342      -0.12096212308268399        0.00000000    
  0.33000621143438719      -0.10994518747643016        0.00000000    
  0.38218227031284696       -9.7088495130095334E-002   0.00000000    
  0.42744123831344494       -8.2710020285381616E-002   0.00000000    
  0.46510650635056761       -6.7147913447777499E-002   0.00000000    
  0.49467523127036811       -5.0747492083216557E-002   0.00000000    
  0.51582201895362856       -3.3849453594221028E-002   0.00000000    
  0.52838934189363784       -1.6779355389855949E-002   0.00000000    
  0.53238046634244596        1.5972293171574034E-004   0.00000000    
  0.52794256894948599        1.6693514582345959E-002   0.00000000    
  0.51535337111450619        3.2579132102577381E-002   0.00000000    
  0.49500193930522007        4.7607185520496906E-002   0.00000000    
  0.46737341072211364        6.1600614342797996E-002   0.00000000    
  0.43303126846681195        7.4413652887108550E-002   0.00000000    
  0.39260335224841025        8.5928514616332316E-002   0.00000000    
  0.34676770266791790        9.6052636582578996E-002   0.00000000    
  0.29624153081195281       0.10471471581742334        0.00000000    
  0.24177118589933591       0.11186151787052312        0.00000000    
  0.18412444633774766       0.11745434848428499        0.00000000    
  0.12408408946503957       0.12146634788225370        0.00000000    
   6.2442957252226448E-002  0.12388003600537016        0.00000000    
   0.0000000000000000       0.12468564616286390        0.00000000    
   0.0000000000000000       0.18762426227692394        0.00000000    
  -6.3033306871953812E-002  0.18641902521343109        0.00000000    
 -0.12527114642666895       0.18280767148435317        0.00000000    
 -0.18592023747438929       0.17680381368301062        0.00000000    
 -0.24419199858227225       0.16843189382998994        0.00000000    
 -0.29930585123572190       0.15772987754507106        0.00000000    
 -0.35049354503802216       0.14475267970684469        0.00000000    
 -0.39700488111935528       0.12957679516019610        0.00000000    
 -0.43811524937765478       0.11230499439027432        0.00000000    
 -0.47313476035478952        9.3072262992047475E-002   0.00000000    
 -0.50142006502747472        7.2050706356349331E-002   0.00000000    
 -0.52238723442907420        4.9455547778570627E-002   0.00000000    
 -0.53552817195228819        2.5548568521045489E-002   0.00000000    
 -0.54042645322115246        6.4218130194545618E-004   0.00000000    
 -0.53677728257366553       -2.4900776470743461E-002   0.00000000    
 -0.52440390479727683       -5.0667402921540927E-002   0.00000000    
 -0.50327816304543316       -7.6200741926591598E-002   0.00000000    
 -0.47353333070451570      -0.10100689117821321        0.00000000    
 -0.43548039475384209      -0.12456791798454010        0.00000000    
 -0.38961202653847415      -0.14635660596002506        0.00000000    
 -0.33660868622228679      -0.16585514886325101        0.00000000    
 -0.27732900027294544      -0.18257578572201560        0.00000000    
 -0.21280078576311678      -0.19608132324009089        0.00000000    
 -0.14419597728652583      -0.20600693398271525        0.00000000    
  -7.2805180091516083E-002 -0.21207653866297624        0.00000000    
   5.9206658479552235E-009 -0.21411937104191417        0.00000000    
   7.2805191894138407E-002 -0.21207653833831039        0.00000000    
  0.14419598903599504      -0.20600693356510130        0.00000000    
  0.21280079730587367      -0.19608132286198734        0.00000000    
  0.27732901165400642      -0.18257578526557927        0.00000000    
  0.33660869706118740      -0.16585514778462485        0.00000000    
  0.38961203713493775      -0.14635660450430082        0.00000000    
  0.43548040492255458      -0.12456791662074970        0.00000000    
  0.47353334042328182      -0.10100688967449858        0.00000000    
  0.50327817208546111       -7.6200740493757191E-002   0.00000000    
  0.52440391314442147       -5.0667400960412654E-002   0.00000000    
  0.53677729071540647       -2.4900774513945283E-002   0.00000000    
  0.54042646068471956        6.4218272841065594E-004   0.00000000    
  0.53552817884608761        2.5548570176108759E-002   0.00000000    
  0.52238724098663236        4.9455549410657350E-002   0.00000000    
  0.50142007092772978        7.2050708302130090E-002   0.00000000    
  0.47313476544526462        9.3072264813069933E-002   0.00000000    
  0.43811525396099449       0.11230499624589264        0.00000000    
  0.39700488513375215       0.12957679722243839        0.00000000    
  0.35049354857073828       0.14475268178595047        0.00000000    
  0.29930585396897941       0.15772987939277705        0.00000000    
  0.24419200062549165       0.16843189542861883        0.00000000    
  0.18592023901360613       0.17680381542880580        0.00000000    
  0.12527114741648168       0.18280767307945281        0.00000000    
   6.3033307405735914E-002  0.18641902693394496        0.00000000    
   0.0000000000000000       0.18762426391017778        0.00000000    
   0.0000000000000000       0.25125493972612323        0.00000000    
  -6.3831240852724680E-002  0.24965417797638817        0.00000000    
 -0.12687663888679696       0.24485703867861836        0.00000000    
 -0.18835153227988694       0.23687971306095248        0.00000000    
 -0.24747408870331727       0.22575159376183637        0.00000000    
 -0.30346752842948876       0.21151875130572420        0.00000000    
 -0.35556368105380448       0.19424893311183478        0.00000000    
 -0.40300780026979433       0.17403727711500080        0.00000000    
 -0.44506533653634667       0.15101369625061753        0.00000000    
 -0.48103082276951370       0.12534983677263706        0.00000000    
 -0.51023882006009158        9.7267712032676534E-002   0.00000000    
 -0.53207796634854398        6.7046134282571099E-002   0.00000000    
 -0.54600625049479146        3.5028479120629175E-002   0.00000000    
 -0.55157033552125745        1.6259113365917524E-003   0.00000000    
 -0.54842385960709827       -3.2678879845283032E-002   0.00000000    
 -0.53635035632482808       -6.7334908506824664E-002   0.00000000    
 -0.51528119919205917      -0.10172686423558608        0.00000000    
 -0.48531799900657818      -0.13518753148161836        0.00000000    
 -0.44674467524720896      -0.16701226849938627        0.00000000    
 -0.40004290560967160      -0.19648112535645704        0.00000000    
 -0.34589184114199401      -0.22288376716555630        0.00000000    
 -0.28516947937596154      -0.24554794879662500        0.00000000    
 -0.21893513911032314      -0.26387044922080544        0.00000000    
 -0.14841195241934471      -0.27734453792705704        0.00000000    
  -7.4951883435577071E-002 -0.28558853597926892        0.00000000    
   5.9000278513953591E-009 -0.28836318431968094        0.00000000    
   7.4951895097344470E-002 -0.28558853547760543        0.00000000    
  0.14841196377092911      -0.27734453732310405        0.00000000    
  0.21893515041529357      -0.26387044877571447        0.00000000    
  0.28516949025264821      -0.24554794781719674        0.00000000    
  0.34589185165380948      -0.22288376570289020        0.00000000    
  0.40004291570866185      -0.19648112362951059        0.00000000    
  0.44674468505634174      -0.16701226668920921        0.00000000    
  0.48531800852230772      -0.13518752968094025        0.00000000    
  0.51528120835893454      -0.10172686207212263        0.00000000    
  0.53635036502748568       -6.7334906119224200E-002   0.00000000    
  0.54842386781983099       -3.2678877619627969E-002   0.00000000    
  0.55157034337232880        1.6259135340356515E-003   0.00000000    
  0.54600625772659250        3.5028481193751973E-002   0.00000000    
  0.53207797283605507        6.7046136577129989E-002   0.00000000    
  0.51023882590922187        9.7267714611668804E-002   0.00000000    
  0.48103082807750780       0.12534983931136465        0.00000000    
  0.44506534100889450       0.15101369873111253        0.00000000    
  0.40300780418835586       0.17403727967529539        0.00000000    
  0.35556368436741204       0.19424893577952337        0.00000000    
  0.30346753119756265       0.21151875390983940        0.00000000    
  0.24747409080628263       0.22575159595920291        0.00000000    
  0.18835153375271826       0.23687971534214733        0.00000000    
  0.12687663986659847       0.24485704078075216        0.00000000    
   6.3831241298552541E-002  0.24965418017987220        0.00000000    
   0.0000000000000000       0.25125494185601671        0.00000000    
   0.0000000000000000       0.31576983033276645        0.00000000    
  -6.4807707204902393E-002  0.31377945650395905        0.00000000    
 -0.12884309481476378       0.30781376674816352        0.00000000    
 -0.19133386551438147       0.29788986979145360        0.00000000    
 -0.25150797893232296       0.28403932721375391        0.00000000    
 -0.30859495638859469       0.26631265489357847        0.00000000    
 -0.36182790301817014       0.24478534803819538        0.00000000    
 -0.41044757444180763       0.21956587138373121        0.00000000    
 -0.45370787850085553       0.19080416005680464        0.00000000    
 -0.49088410667243515       0.15870230422146081        0.00000000    
 -0.52128359936313440       0.12352395043275814        0.00000000    
 -0.54425916250459982        8.5605820125750159E-002   0.00000000    
 -0.55922611796015964        4.5365246578990916E-002   0.00000000    
 -0.56568087137981971        3.3091948671145578E-003   0.00000000    
 -0.56322423121815091       -3.9964068093901690E-002   0.00000000    
 -0.55158307437291321       -8.3763170221040142E-002   0.00000000    
 -0.53063732177580658      -0.12731230326985002        0.00000000    
 -0.50043980813857702      -0.16976159843883154        0.00000000    
 -0.46124098498631311      -0.21020914172045738        0.00000000    
 -0.41349947271383658      -0.24772632833282499        0.00000000    
 -0.35789581365956724      -0.28139208292354556        0.00000000    
 -0.29532570412382048      -0.31033090035859545        0.00000000    
 -0.22689421382673461      -0.33375212491042228        0.00000000    
 -0.15388719690215982      -0.35099186305897273        0.00000000    
  -7.7742011538068229E-002 -0.36154526275402660        0.00000000    
   5.7944231169590220E-009 -0.36509916195014641        0.00000000    
   7.7742023096118676E-002 -0.36154526208327897        0.00000000    
  0.15388720841059797      -0.35099186226430817        0.00000000    
  0.22689422471986048      -0.33375212399411686        0.00000000    
  0.29532571471902341      -0.31033089912417605        0.00000000    
  0.35789582395407826      -0.28139208105030750        0.00000000    
  0.41349948267091735      -0.24772632626619520        0.00000000    
  0.46124099458565299      -0.21020913960236542        0.00000000    
  0.50043981721449615      -0.16976159612924352        0.00000000    
  0.53063733045927053      -0.12731230087398662        0.00000000    
  0.55158308306334214       -8.3763167608586722E-002   0.00000000    
  0.56322423969073687       -3.9964065385330767E-002   0.00000000    
  0.56568087920527399        3.3091975904355887E-003   0.00000000    
  0.55922612531725513        4.5365249213866463E-002   0.00000000    
  0.54425916934901775        8.5605823115523783E-002   0.00000000    
  0.52128360571169274       0.12352395345077626        0.00000000    
  0.49088411240126700       0.15870230748202563        0.00000000    
  0.45370788353194963       0.19080416334864650        0.00000000    
  0.41044757853977415       0.21956587461979279        0.00000000    
  0.36182790641846663       0.24478535133274112        0.00000000    
  0.30859495916843310       0.26631265803682791        0.00000000    
  0.25150798114929607       0.28403933009995996        0.00000000    
  0.19133386720450452       0.29788987254079391        0.00000000    
  0.12884309579072498       0.30781376958934331        0.00000000    
   6.4807707531532768E-002  0.31377945915170152        0.00000000    
   0.0000000000000000       0.31576983279085979        0.00000000    
   0.0000000000000000       0.38132732762911292        0.00000000    
  -6.5924667162797546E-002  0.37895549336490170        0.00000000    
 -0.13109531118702086       0.37184492118215273        0.00000000    
 -0.19475636970205845       0.36001170397638566        0.00000000    
 -0.25614981996256786       0.34348621572886961        0.00000000    
 -0.31451452688260417       0.32231860927041739        0.00000000    
 -0.36908743848986558       0.29658640978840950        0.00000000    
 -0.41910551999272799       0.26640371971031385        0.00000000    
 -0.46381068574970163       0.23193293784856045        0.00000000    
 -0.50245630408323272       0.19339652828868370        0.00000000    
 -0.53431752474211291       0.15109159402990596        0.00000000    
 -0.55870443894329558       0.10540180706698908        0.00000000    
 -0.57497900039548511        5.6811928556304098E-002   0.00000000    
 -0.58257632073234233        5.9157374203396389E-003   0.00000000    
 -0.58102787079848128       -4.6574551238300343E-002   0.00000000    
 -0.56999042521483845       -9.9830141286350718E-002   0.00000000    
 -0.54927226110882355      -0.15290810196540747        0.00000000    
 -0.51886558845523167      -0.20476884034051676        0.00000000    
 -0.47896846038632546      -0.25429670653938746        0.00000000    
 -0.43001190409779155      -0.30033568869071259        0.00000000    
 -0.37266711609070746      -0.34173002725418605        0.00000000    
 -0.30785544341620563      -0.37737359675212356        0.00000000    
 -0.23673125410261200      -0.40626396737839182        0.00000000    
 -0.16066485694987548      -0.42755229449081855        0.00000000    
  -8.1198333719301630E-002 -0.44059540012823306        0.00000000    
   5.7834091469093399E-009 -0.44498824182013397        0.00000000    
   8.1198345131590646E-002 -0.44059539927216002        0.00000000    
  0.16066486795517282      -0.42755229342487472        0.00000000    
  0.23673126498077782      -0.40626396599092163        0.00000000    
  0.30785545370069956      -0.37737359509727475        0.00000000    
  0.37266712597160179      -0.34173002509708578        0.00000000    
  0.43001191365598040      -0.30033568624780904        0.00000000    
  0.47896846959971900      -0.25429670409503280        0.00000000    
  0.51886559736733084      -0.20476883753247602        0.00000000    
  0.54927226977091559      -0.15290809942553429        0.00000000    
  0.56999043364419222       -9.9830138592134063E-002   0.00000000    
  0.58102787891277563       -4.6574548078590100E-002   0.00000000    
  0.58257632856571751        5.9157406205721762E-003   0.00000000    
  0.57497900774071553        5.6811931670771927E-002   0.00000000    
  0.55870444600414049       0.10540181037423411        0.00000000    
  0.53431753138148064       0.15109159764778876        0.00000000    
  0.50245630987790202       0.19339653241380933        0.00000000    
  0.46381069068982667       0.23193294182812377        0.00000000    
  0.41910552429215642       0.26640372383247779        0.00000000    
  0.36908744193942455       0.29658641374439254        0.00000000    
  0.31451452965437904       0.32231861305047138        0.00000000    
  0.25614982217092258       0.34348621910455651        0.00000000    
  0.19475637131658860       0.36001170735692040        0.00000000    
  0.13109531220165779       0.37184492470619318        0.00000000    
   6.5924667823144961E-002  0.37895549633340359        0.00000000    
   0.0000000000000000       0.38132733075342423        0.00000000    
   0.0000000000000000       0.44804300742345182        0.00000000    
  -6.7134806858273138E-002  0.44530038622338541        0.00000000    
 -0.13353943872384363       0.43707640271029807        0.00000000    
 -0.19848068037430686       0.42338362084145220        0.00000000    
 -0.26121923966614746       0.40424740624215272        0.00000000    
 -0.32100810885959824       0.37971209216463087        0.00000000    
 -0.37709106194265268       0.34984988821972818        0.00000000    
 -0.42870400832521594       0.31477236501848305        0.00000000    
 -0.47507698373214508       0.27464352866062591        0.00000000    
 -0.51544045268934902       0.22969611871682877        0.00000000    
 -0.54903331606462158       0.18024718047810967        0.00000000    
 -0.57511630510156064       0.12671721550299039        0.00000000    
 -0.59298877810924966        6.9644644953575779E-002   0.00000000    
 -0.60201070462197526        9.7033569136790836E-003   0.00000000    
 -0.60163010765575009       -5.2290129966502306E-002   0.00000000    
 -0.59141278590188540      -0.11536824362669244        0.00000000    
 -0.57107917816010023      -0.17842068660053320        0.00000000    
 -0.54053641960762289      -0.24020460340731931        0.00000000    
 -0.49991778823447885      -0.29937562072739854        0.00000000    
 -0.44960599455297845      -0.35452404351846639        0.00000000    
 -0.39026195386112739      -0.40422942129677325        0.00000000    
 -0.32282489347883375      -0.44712185692369533        0.00000000    
 -0.24851442132713733      -0.48194929065511311        0.00000000    
 -0.16879686712082223      -0.50764984519489920        0.00000000    
  -8.5350472759216672E-002 -0.52340969007567006        0.00000000    
   5.6309579840449945E-009 -0.52872169304627115        0.00000000    
   8.5350484100850221E-002 -0.52340968914478525        0.00000000    
  0.16879687829841500      -0.50764984363273391        0.00000000    
  0.24851443180657282      -0.48194928893857547        0.00000000    
  0.32282490355212096      -0.44712185459809439        0.00000000    
  0.39026196341663882      -0.40422941888904956        0.00000000    
  0.44960600389874189      -0.35452404079373234        0.00000000    
  0.49991779715472601      -0.29937561779456273        0.00000000    
  0.54053642830160831      -0.24020460056020296        0.00000000    
  0.57107918671177349      -0.17842068370741621        0.00000000    
  0.59141279406455971      -0.11536824066398210        0.00000000    
  0.60163011562915369       -5.2290126570955650E-002   0.00000000    
  0.60201071227865421        9.7033604757193696E-003   0.00000000    
  0.59298878536595034        6.9644648594358913E-002   0.00000000    
  0.57511631177756506       0.12671721914900266        0.00000000    
  0.54903332211986500       0.18024718479946306        0.00000000    
  0.51544045837554153       0.22969612335223352        0.00000000    
  0.47507698904857026       0.27464353335422181        0.00000000    
  0.42870401278450376       0.31477236992444824        0.00000000    
  0.37709106562310124       0.34984989302061892        0.00000000    
  0.32100811169518406       0.37971209662242372        0.00000000    
  0.26121924188060841       0.40424741012464577        0.00000000    
  0.19848068222804213       0.42338362466973190        0.00000000    
  0.13353944032095241       0.43707640664311304        0.00000000    
   6.7134807629091228E-002  0.44530038996369281        0.00000000    
   0.0000000000000000       0.44804301120712303        0.00000000    
   0.0000000000000000       0.51597994652956847        0.00000000    
  -6.8381130860609887E-002  0.51288042244537346        0.00000000    
 -0.13606254270480103       0.50358344766542118        0.00000000    
 -0.20233948540515287       0.48809579742140746        0.00000000    
 -0.26649790383360983       0.46643324414354481        0.00000000    
 -0.32780991263076009       0.43862816845366254        0.00000000    
 -0.38553163570975896       0.40473952359592469        0.00000000    
 -0.43890083386427176       0.36486590885446069        0.00000000    
 -0.48713873075308128       0.31916189084092816        0.00000000    
 -0.52945225342128299       0.26785578080799577        0.00000000    
 -0.56504243633264173       0.21127159613382646        0.00000000    
 -0.59311472056932657       0.14984910329401188        0.00000000    
 -0.61289688707977619        8.4168425479177092E-002   0.00000000    
 -0.62366126383976195        1.4966907011494803E-002   0.00000000    
 -0.62475407851816656       -5.6840436501669533E-002   0.00000000    
 -0.61563187390952512      -0.13015643913703326        0.00000000    