 <VTKFile type="UnstructuredGrid" version="0.1" byte_order="BigEndian">
 <UnstructuredGrid>
 <Piece NumberOfPoints="        2601 " NumberOfCells="        2500 ">
 <PointData Scalars="scalars">
 <DataArray type="Float32" NumberOfComponents="3" Name="Velocity" Format="ascii">
   0.0000000000000000        0.0000000000000000        0.00000000    
 -0.10587287116881142        0.0000000000000000        0.00000000    
 -0.21207910738619470        0.0000000000000000        0.00000000    
 -0.31894329485243433        0.0000000000000000        0.00000000    
 -0.42676735103329261        0.0000000000000000        0.00000000    
 -0.53581826615378358        0.0000000000000000        0.00000000    
 -0.64629767269476746        0.0000000000000000        0.00000000    
 -0.75831384248972000        0.0000000000000000        0.00000000    
 -0.87181181795452856        0.0000000000000000        0.00000000    
 -0.98650484248883552        0.0000000000000000        0.00000000    
  -1.1017150232029533        0.0000000000000000        0.00000000    
  -1.2162134101054756        0.0000000000000000        0.00000000    
  -1.3278787332877195        0.0000000000000000        0.00000000    
  -1.4333731962719312        0.0000000000000000        0.00000000    
  -1.5276200852511141        0.0000000000000000        0.00000000    
  -1.6033261748533227        0.0000000000000000        0.00000000    
  -1.6512489301388997        0.0000000000000000        0.00000000    
  -1.6597060910992640        0.0000000000000000        0.00000000    
  -1.6176375164844981        0.0000000000000000        0.00000000    
  -1.5181239520447489        0.0000000000000000        0.00000000    
  -1.3601459744582223        0.0000000000000000        0.00000000    
  -1.1473443571785502        0.0000000000000000        0.00000000    
 -0.88847350575320749        0.0000000000000000        0.00000000    
 -0.59902258168017741        0.0000000000000000        0.00000000    
 -0.29624450583872303        0.0000000000000000        0.00000000    
   6.6039509060169862E-003   0.0000000000000000        0.00000000    
  0.30737251578883551        0.0000000000000000        0.00000000    
  0.60492662761180949        0.0000000000000000        0.00000000    
  0.88958681850373311        0.0000000000000000        0.00000000    
   1.1461830244907936        0.0000000000000000        0.00000000    
   1.3580388092721831        0.0000000000000000        0.00000000    
   1.5156825329031416        0.0000000000000000        0.00000000    
   1.6152352481407020        0.0000000000000000        0.00000000    
   1.6575003775597226        0.0000000000000000        0.00000000    
   1.6493065788347825        0.0000000000000000        0.00000000    
   1.6016630193748231        0.0000000000000000        0.00000000    
   1.5262387081693574        0.0000000000000000        0.00000000    
   1.4322446584239243        0.0000000000000000        0.00000000    
   1.3269781804897074        0.0000000000000000        0.00000000    
   1.2154931330482504        0.0000000000000000        0.00000000    
   1.1011408071566926        0.0000000000000000        0.00000000    
  0.98604597868449961        0.0000000000000000        0.00000000    
  0.87144508732548276        0.0000000000000000        0.00000000    
  0.75802170616317688        0.0000000000000000        0.00000000    
  0.64606641358630479        0.0000000000000000        0.00000000    
  0.53563818438816968        0.0000000000000000        0.00000000    
  0.42663079840421009        0.0000000000000000        0.00000000    
  0.31884515373756228        0.0000000000000000        0.00000000    
  0.21201554234462736        0.0000000000000000        0.00000000    
  0.10584167086055306        0.0000000000000000        0.00000000    
   0.0000000000000000        0.0000000000000000        0.00000000    
   0.0000000000000000       0.10525599173349791        0.00000000    
 -0.10480061115339841       0.10541897249608183        0.00000000    
 -0.20991486174080745       0.10590299585143859        0.00000000    
 -0.31564592697082317       0.10669373764840900        0.00000000    
 -0.42227687950829923       0.10776275073921310        0.00000000    
 -0.53005067188195776       0.10906343486313837        0.00000000    
 -0.63915225097958916       0.11051902685003119        0.00000000    
 -0.74966427534564062       0.11201064081927231        0.00000000    
 -0.86152506102509907       0.11334959065356774        0.00000000    
 -0.97442882503811712       0.11424866432805138        0.00000000    
  -1.0877264806633307       0.11426063370353257        0.00000000    
  -1.2002042734037774       0.11271700188070488        0.00000000    
  -1.3098658337979503       0.10861133066877107        0.00000000    
  -1.4134860316192803       0.10050477068632507        0.00000000    
  -1.5062212044279093        8.6478721490972563E-002   0.00000000    
  -1.5810984325554900        6.4106014444051562E-002   0.00000000    
  -1.6286067267888349        3.1326438882990700E-002   0.00000000    
  -1.6379510748577657       -1.3523542836483906E-002   0.00000000    
  -1.5968654736916505       -6.9629264722632575E-002   0.00000000    
  -1.4965436978284572      -0.13020472737527999        0.00000000    
  -1.3375611955074127      -0.18675442467623951        0.00000000    
  -1.1269394549459715      -0.23666762491825702        0.00000000    
 -0.87203173747765261      -0.27710965288664041        0.00000000    
 -0.58508127570668045      -0.29929045474008981        0.00000000    
 -0.28732847841088510      -0.30123914811325347        0.00000000    
   6.9050084884287278E-003 -0.29584152838863942        0.00000000    
  0.29760527374333584      -0.29562603413374061        0.00000000    
  0.58954045872558813      -0.29386199105016486        0.00000000    
  0.87306273569798332      -0.27431919700726054        0.00000000    
   1.1261214742505161      -0.23533445520973428        0.00000000    
   1.3357709109881415      -0.18616945717666805        0.00000000    
   1.4943990014798183      -0.13010102845376015        0.00000000    
   1.5947038839677412       -6.9755220619523550E-002   0.00000000    
   1.6359436987819858       -1.3748355074232744E-002   0.00000000    
   1.6268172906539569        3.1069949169837175E-002   0.00000000    
   1.5795527803940523        6.3839524518014418E-002   0.00000000    
   1.5049255603941731        8.6213425004468824E-002   0.00000000    
   1.4124397840009524       0.10026783160360868        0.00000000    
   1.3090211931274800       0.10841867780843104        0.00000000    
   1.1995279377563377       0.11256107401744003        0.00000000    
   1.0871835870842328       0.11413705851704935        0.00000000    
  0.97399299782665261       0.11414982092761852        0.00000000    
  0.86117543449100964       0.11327010021911783        0.00000000    
  0.74938443339724126       0.11194575237984136        0.00000000    
  0.63893032491434376       0.11046512220013911        0.00000000    
  0.52987716155743170       0.10901774643955640        0.00000000    
  0.42214524617614824       0.10772303304274833        0.00000000    
  0.31555102722738060       0.10665831024987453        0.00000000    
  0.20985342765752593       0.10587038152382723        0.00000000    
  0.10477038989979463       0.10538800926762101        0.00000000    
   0.0000000000000000       0.10522553340683141        0.00000000    
   0.0000000000000000       0.20839952678317444        0.00000000    
 -0.10162805943248589       0.20870552842576814        0.00000000    
 -0.20351072772816337       0.20961477884349447        0.00000000    
 -0.30589266967792178       0.21109638115535106        0.00000000    
 -0.40899442745876674       0.21309423576704198        0.00000000    
 -0.51299960065380490       0.21551233210289186        0.00000000    
 -0.61802740047294380       0.21820092325231663        0.00000000    
 -0.72410739404945768       0.22092217459513455        0.00000000    
 -0.83112219582707314       0.22331505349233435        0.00000000    
 -0.93875206312989634       0.22481823819399496        0.00000000    
  -1.0463529242026461       0.22459097734709890        0.00000000    
  -1.1528356329125438       0.22134855494481548        0.00000000    
  -1.2564021041510247       0.21320919777828248        0.00000000    
  -1.3542959137477197       0.19742229139166997        0.00000000    
  -1.4422051922713059       0.17020702266530127        0.00000000    
  -1.5138998859668877       0.12695099375196223        0.00000000    
  -1.5603445528384015        6.2435765008563508E-002   0.00000000    
  -1.5699084551722036       -2.5723290955611933E-002   0.00000000    
  -1.5311914161185092      -0.13723084886022871        0.00000000    
  -1.4313595908321202      -0.26275545807340195        0.00000000    
  -1.2667385276569385      -0.37780599444237961        0.00000000    
  -1.0554700013507226      -0.46750507710832545        0.00000000    
 -0.81260799137313222      -0.54404070288003781        0.00000000    
 -0.54530947720339218      -0.58660717145493346        0.00000000    
 -0.26952087617488474      -0.58746262723598963        0.00000000    
   4.7476035324751234E-003 -0.57811881307609669        0.00000000    
  0.27635767172730119      -0.57565787846059768        0.00000000    
  0.54852568315678618      -0.57793213798087206        0.00000000    
  0.81434675292138103      -0.53959118593316446        0.00000000    
   1.0558515826220343      -0.46462480815478985        0.00000000    
   1.2658818676073895      -0.37655758023131913        0.00000000    
   1.4300002353727947      -0.26245809807002751        0.00000000    
   1.5297381810519111      -0.13743969245680182        0.00000000    
   1.5684885436424088       -2.6052752398025521E-002   0.00000000    
   1.5589614387410784        6.2029187325451575E-002   0.00000000    
   1.5126639369055226       0.12644364292998381        0.00000000    
   1.4411974628451385       0.16970435941523024        0.00000000    
   1.3534657032215125       0.19699580382146792        0.00000000    
   1.2557230063847531       0.21285337374729227        0.00000000    
   1.1522804962809918       0.22106353212916871        0.00000000    
   1.0458991292252122       0.22436171341737585        0.00000000    
  0.93838194098336258       0.22463434435893154        0.00000000    
  0.83082061372738714       0.22316587278467687        0.00000000    
  0.72386338806168471       0.22079961574482498        0.00000000    
  0.61783161184446389       0.21809855578202353        0.00000000    
  0.51284551215698693       0.21542499063705278        0.00000000    
  0.40887657381516729       0.21301805927567835        0.00000000    
  0.30580743006642747       0.21102806493860557        0.00000000    
  0.20345526853577103       0.20955180726188880        0.00000000    
  0.10160076732319692       0.20864554254526368        0.00000000    
   0.0000000000000000       0.20834057775220546        0.00000000    
   0.0000000000000000       0.30740323858427021        0.00000000    
  -9.6483901375555847E-002  0.30781513666266402        0.00000000    
 -0.19312977347799659       0.30903506989858315        0.00000000    
 -0.29008726931731799       0.31101688610305306        0.00000000    
 -0.38748190392446530       0.31367148037834552        0.00000000    
 -0.48539636127361080       0.31685607377606623        0.00000000    
 -0.58385312922271837       0.32034310322807635        0.00000000    
 -0.68278125325097239       0.32378946376842033        0.00000000    
 -0.78198469868937637       0.32666736019358422        0.00000000    
 -0.88108052886769317       0.32819297411723364        0.00000000    
 -0.97943787547161953       0.32717578997666869        0.00000000    
  -1.0760579492782383       0.32186786055904032        0.00000000    
  -1.1694519560398777       0.30965169965206324        0.00000000    
  -1.2573569426028233       0.28677990762330119        0.00000000    
  -1.3364651164770391       0.24786817156836832        0.00000000    
  -1.4013248797013267       0.18584560325803795        0.00000000    
  -1.4441390207293223        9.2801251103800900E-002   0.00000000    
  -1.4522204864987323       -3.8442138344857234E-002   0.00000000    
  -1.4109812818639194      -0.20446699447633476        0.00000000    
  -1.3063828785608775      -0.39994831501940142        0.00000000    
  -1.1391957530479400      -0.57242012769001782        0.00000000    
 -0.93346951197005901      -0.68988453359590152        0.00000000    
 -0.71232269767966883      -0.78566890578697579        0.00000000    
 -0.48446169555644081      -0.84013732882033454        0.00000000    
 -0.24696935227953210      -0.84721226365815272        0.00000000    
  -1.6829518664235169E-004 -0.83943756561478489        0.00000000    
  0.24863120004710026      -0.83474754144550556        0.00000000    
  0.48797874648289041      -0.83035688216596071        0.00000000    
  0.71518403527131758      -0.78019164401956109        0.00000000    
  0.93519481035217422      -0.68553878950634994        0.00000000    
   1.1396323912048452      -0.57011028645550943        0.00000000    
   1.3062441888870489      -0.39963435834894312        0.00000000    
   1.4107202959342697      -0.20447625860665222        0.00000000    
   1.4515134812709107       -3.8558483297559884E-002   0.00000000    
   1.4433004057651648        9.2276369414340365E-002   0.00000000    
   1.4006521329354356       0.18514352333097733        0.00000000    
   1.3358842876735724       0.24724009988292692        0.00000000    
   1.2568487540212028       0.28622866941763109        0.00000000    
   1.1690146752438109       0.30919860574444352        0.00000000    
   1.0756801495612556       0.32149666543373129        0.00000000    
  0.97911620427409385       0.32687522820415837        0.00000000    
  0.88080743531948580       0.32794812766172887        0.00000000    
  0.78175577631063831       0.32646642090422900        0.00000000    
  0.68259087238026961       0.32362254589145850        0.00000000    
  0.58369755047762828       0.32020207530972639        0.00000000    
  0.48527167359058948       0.31673480157321793        0.00000000    
  0.38738551481123384       0.31356470120890811        0.00000000    
  0.29001677244215446       0.31092066630128212        0.00000000    
  0.19308369097226102       0.30894580712017844        0.00000000    
   9.6461098309484253E-002  0.30772999546251545        0.00000000    
   0.0000000000000000       0.30731934970379737        0.00000000    
   0.0000000000000000       0.40040713564416086        0.00000000    
  -8.9574573840196375E-002  0.40087101321663920        0.00000000    
 -0.17919094417641476       0.40224273387281906        0.00000000    
 -0.26887763248303370       0.40445470373940656        0.00000000    
 -0.35863432551484525       0.40738628689113598        0.00000000    
 -0.44841665462529678       0.41083934892416685        0.00000000    
 -0.53811399858140518       0.41451523349446634        0.00000000    
 -0.62752762775802362       0.41796037809388964        0.00000000    
 -0.71633724990347081       0.42051080223698023        0.00000000    
 -0.80406678926785824       0.42117618723916739        0.00000000    
 -0.89003510555788479       0.41851952156796557        0.00000000    
 -0.97329986491544018       0.41041023936762322        0.00000000    
  -1.0525771410495661       0.39378187547656301        0.00000000    
  -1.1261212483590310       0.36410009073288258        0.00000000    
  -1.1914361619035518       0.31497233283486575        0.00000000    
  -1.2447957481773821       0.23696203831966448        0.00000000    
  -1.2785457836176488       0.11825022663410556        0.00000000    
  -1.2808557098767874       -5.3498504132190330E-002   0.00000000    
  -1.2292108360242362      -0.28229351118062590        0.00000000    
  -1.1153730117325726      -0.54055685480918880        0.00000000    
 -0.96265513997202434      -0.75171543536021790        0.00000000    
 -0.78659234079435991      -0.89237712967088445        0.00000000    
 -0.59836241233760412      -0.99255192087130684        0.00000000    
 -0.40828051089608652       -1.0511960865875412        0.00000000    
 -0.21060918256076663       -1.0713160508840363        0.00000000    
  -2.2276237508108898E-003  -1.0705152730888681        0.00000000    
  0.20876221448943358       -1.0634580477554736        0.00000000    
  0.41008738127225541       -1.0423179647346215        0.00000000    
  0.60083365007338019      -0.98618098939144816        0.00000000    
  0.78855098047983663      -0.88727641849839278        0.00000000    
  0.96414449630153232      -0.74840261778715789        0.00000000    
   1.1162684492464534      -0.54007662791663680        0.00000000    
   1.2297238454301034      -0.28196432114681091        0.00000000    
   1.2810594788018168       -5.3198043178811091E-002   0.00000000    
   1.2786056164108581       0.11758408506433859        0.00000000    
   1.2447957375405572       0.23629519350738318        0.00000000    
   1.1913329543669415       0.31432030500341340        0.00000000    
   1.1259832281947879       0.36353498109716870        0.00000000    
   1.0524088720062901       0.39330199411188171        0.00000000    
  0.97312701209411800       0.41001093441471270        0.00000000    
  0.88986475168876156       0.41818844216553869        0.00000000    
  0.80390862226390181       0.42090109391184527        0.00000000    
  0.71619409350296448       0.42028092805711298        0.00000000    
  0.62740241754054382       0.41776590742616171        0.00000000    
  0.53800705795944559       0.41434868665400365        0.00000000    
  0.44832844684537321       0.41069397174708810        0.00000000    
  0.35856435895881317       0.40725707290904850        0.00000000    
  0.26882568688237973       0.40433700556335517        0.00000000    
  0.17915652490860917       0.40213300877241337        0.00000000    
   8.9557459257903857E-002  0.40076575021917704        0.00000000    
   0.0000000000000000       0.40030345091833575        0.00000000    
   0.0000000000000000       0.48578593521773317        0.00000000    
  -8.1170655269270295E-002  0.48623868062419895        0.00000000    
 -0.16224544876097055       0.48756746789014993        0.00000000    
 -0.24311281869992959       0.48968526501053627        0.00000000    
 -0.32362961441742000       0.49243045056605367        0.00000000    
 -0.40360270940125514       0.49555184438738842        0.00000000    
 -0.48276981952212522       0.49866842566495351        0.00000000    
 -0.56077672523824229       0.50122895252481026        0.00000000    
 -0.63715206364964294       0.50242841781492209        0.00000000    
 -0.71128243478199249       0.50111970890171997        0.00000000    
 -0.78237904776267886       0.49564215267996459        0.00000000    
 -0.84946263687520540       0.48363717638843579        0.00000000    
 -0.91131048183970365       0.46168127462933822        0.00000000    
 -0.96646825162697092       0.42490377829033027        0.00000000    
  -1.0130457678138618       0.36606227795576807        0.00000000    
  -1.0485968372657382       0.27478394370530274        0.00000000    
  -1.0682748845043186       0.13385758786169735        0.00000000    
  -1.0575575735653591       -7.7512080417812268E-002   0.00000000    
 -0.99725114089187661      -0.37023009133585300        0.00000000    
 -0.89343383558654921      -0.67027427208270796        0.00000000    
 -0.76880211015282029      -0.89934649043904935        0.00000000    
 -0.63009704578717030       -1.0595128169771153        0.00000000    
 -0.47979097479253763       -1.1639511159782332        0.00000000    
 -0.32419839753384555       -1.2254702558672652        0.00000000    
 -0.16511447314747418       -1.2537960218632103        0.00000000    
  -1.7969514402395748E-003  -1.2597332717228524        0.00000000    
  0.16240117427248346       -1.2494269024110969        0.00000000    
  0.32357688012680946       -1.2188488710779730        0.00000000    
  0.48078306705907614       -1.1576014253898605        0.00000000    
  0.63157824485415537       -1.0543673743701283        0.00000000    
  0.77049058466390252      -0.89581639706953753        0.00000000    
  0.89462244750836817      -0.66891753997654280        0.00000000    
  0.99788217188684758      -0.36983739776855323        0.00000000    
   1.0585418651942626       -7.7319143528342085E-002   0.00000000    
   1.0691951315942401       0.13350695082185782        0.00000000    
   1.0491110432542061       0.27426747885228969        0.00000000    
   1.0133933385157106       0.36552970233038234        0.00000000    
  0.96665302721002833       0.42441682418914056        0.00000000    
  0.91139970596431541       0.46124903807075390        0.00000000    
  0.84948234129302347       0.48326433011928033        0.00000000    
  0.78235927343440892       0.49532159439551227        0.00000000    
  0.71123871791142079       0.50084585014060090        0.00000000    
  0.63709781281733091       0.50219283243499391        0.00000000    
  0.56071932667311131       0.50102539461366646        0.00000000    
  0.48271502091277063       0.49849009652351878        0.00000000    
  0.40355365765998052       0.49539376980718630        0.00000000    
  0.32358866182757384       0.49228759361778590        0.00000000    
  0.24308118466354009       0.48955387029727671        0.00000000    
  0.16222402032590380       0.48744370739819143        0.00000000    
   8.1159829510493081E-002  0.48611954566162319        0.00000000    
   0.0000000000000000       0.48566818212107243        0.00000000    
   0.0000000000000000       0.56220882166248876        0.00000000    
  -7.1591200952311987E-002  0.56257882801789760        0.00000000    
 -0.14294166657009758       0.56365375698806164        0.00000000    
 -0.21379324971744362       0.56531910590718293        0.00000000    
 -0.28385248381367195       0.56737381567279344        0.00000000    
 -0.35277146118419617       0.56950172684779343        0.00000000    
 -0.42012820091519387       0.57124356702270040        0.00000000    
 -0.48540381675038075       0.57193750514422148        0.00000000    
 -0.54796330543087224       0.57065586286151915        0.00000000    
 -0.60702812171765808       0.56608861964684909        0.00000000    
 -0.66166880514781456       0.55641170414229857        0.00000000    
 -0.71077089422024231       0.53905446589548933        0.00000000    
 -0.75307485662904461       0.51041695179328783        0.00000000    
 -0.78709763708470959       0.46534980658735853        0.00000000    
 -0.81133942794643477       0.39643670716895701        0.00000000    
 -0.82374323901594193       0.29236553969152929        0.00000000    
 -0.82292501700548915       0.13513695468431924        0.00000000    
 -0.79939564440762745      -0.11303700426218131        0.00000000    
 -0.74562516918256905      -0.44878096128833772        0.00000000    
 -0.66997603862530919      -0.77118873088446682        0.00000000    
 -0.57755036171100882       -1.0154883301983766        0.00000000    
 -0.47035605521242135       -1.1892692464184043        0.00000000    
 -0.35518028443540312       -1.2996754280904392        0.00000000    
 -0.23826428624851959       -1.3622534199348992        0.00000000    
 -0.12072731204516229       -1.3936326575561964        0.00000000    
  -1.6034898182359437E-003  -1.4023368812946715        0.00000000    
  0.11810284872225113       -1.3907266586145450        0.00000000    
  0.23689456855676486       -1.3575154421221427        0.00000000    
  0.35512288185801666       -1.2943682558433993        0.00000000    
  0.47126840400780190       -1.1845401441995331        0.00000000    
  0.57879418038217245       -1.0120806421896578        0.00000000    
  0.67118459600712344      -0.76917446982645665        0.00000000    
  0.74667450360394794      -0.44832899307264901        0.00000000    
  0.80034801563992353      -0.11315963994178510        0.00000000    
  0.82393343481783521       0.13510988787508782        0.00000000    
  0.82461701130232024       0.29206619115056942        0.00000000    
  0.81195367840625077       0.39611317228389359        0.00000000    
  0.78752615902436507       0.46500233536442082        0.00000000    
  0.75335527700030247       0.51008888536994457        0.00000000    
  0.71094984051119980       0.53874844327660065        0.00000000    
  0.66177513877389649       0.55613641361838684        0.00000000    
  0.60708643613775326       0.56584145487730242        0.00000000    
  0.54798958751695059       0.57043614978937207        0.00000000    
  0.48541038898912625       0.57174093251050029        0.00000000    
  0.42012318614845912       0.57106723965803130        0.00000000    
  0.35276084806366126       0.56934150198158318        0.00000000    
  0.28384019253680642       0.56722668801997966        0.00000000    
  0.21378206548389120       0.56518155630645261        0.00000000    
  0.14293332031621625       0.56352310780702286        0.00000000    
   7.1586784747593002E-002  0.56245204902346224        0.00000000    
   0.0000000000000000       0.56208347063859987        0.00000000    
   0.0000000000000000       0.62867345070825820        0.00000000    
  -6.1184274559390579E-002  0.62889079207926779        0.00000000    
 -0.12198712086050638       0.62949622224900581        0.00000000    
 -0.18200852352481106       0.63035074347640230        0.00000000    
 -0.24081043047384371       0.63120443558471806        0.00000000    
 -0.29789785586123974       0.63167862534721220        0.00000000    
 -0.35269702824499438       0.63122369529981659        0.00000000    
 -0.40453708574148933       0.62907416365797530        0.00000000    
 -0.45262508576490507       0.62416780508456249        0.00000000    
 -0.49603486275340447       0.61505238108393867        0.00000000    
 -0.53367949750453825       0.59973436938811964        0.00000000    
 -0.56432870981345673       0.57548420842616099        0.00000000    
 -0.58657535198534161       0.53853891790061248        0.00000000    
 -0.59895382030046196       0.48363019077026298        0.00000000    
 -0.59984951747481707       0.40329490981510563        0.00000000    
 -0.58813426625020260       0.28619699282290922        0.00000000    
 -0.56256582385433229       0.11491993018444858        0.00000000    
 -0.52992591435967751      -0.14898817186720162        0.00000000    
 -0.49561805851747776      -0.50090703784160917        0.00000000    
 -0.45098174821463255      -0.83934701062515127        0.00000000    
 -0.39189554138490934       -1.0988408514485311        0.00000000    
 -0.31875438095800462       -1.2862511107137087        0.00000000    
 -0.23415358508093720       -1.4024690484280800        0.00000000    
 -0.15389286525859713       -1.4566354335857012        0.00000000    
  -8.1663483564647157E-002  -1.4890159142619266        0.00000000    
  -1.3544271416810081E-003  -1.5063854171607705        0.00000000    
   7.9269641905061097E-002  -1.4870074443251846        0.00000000    
  0.15237742575369959       -1.4531330748031530        0.00000000    
  0.23370174821486009       -1.3983021752253921        0.00000000    
  0.31914205018321795       -1.2821909672535163        0.00000000    
  0.39271853745819058       -1.0955310017056956        0.00000000    
  0.45197202690691812      -0.83736693290638942        0.00000000    
  0.49664707665190272      -0.50030040290702571        0.00000000    
  0.53089582391310408      -0.14910940237908257        0.00000000    
  0.56355881408930253       0.11481233088137187        0.00000000    
  0.58906462986505037       0.28617544876809708        0.00000000    
  0.60057221704163744       0.40316075626982062        0.00000000    
  0.59949797516881609       0.48345761138486754        0.00000000    
  0.58697172055447755       0.53833184749242347        0.00000000    
  0.56461209414631475       0.57527164809742248        0.00000000    
  0.53387824020745478       0.59952287086646627        0.00000000    
  0.49617162665412412       0.61485142231891587        0.00000000    
  0.45271722076338877       0.62397854724615542        0.00000000    
  0.40459762748005806       0.62889843889977648        0.00000000    
  0.35273563115673934       0.63106004589536580        0.00000000    
  0.29792158042183847       0.63152619922890119        0.00000000    
  0.24082435794953916       0.63106098442902703        0.00000000    
  0.18201623376799139       0.63021462757128843        0.00000000    
  0.12199103100359841       0.62936510149656166        0.00000000    
   6.1185874535339593E-002  0.62876286477787224        0.00000000    
   0.0000000000000000       0.62854643176628477        0.00000000    
   0.0000000000000000       0.68452985588507076        0.00000000    
  -5.0307055236174604E-002  0.68452677446281751        0.00000000    
 -0.10010690213355609       0.68446399068190922        0.00000000    
 -0.14887317349900012       0.68417170639697589        0.00000000    
 -0.19604183351500540       0.68335509651348469        0.00000000    
 -0.24099063124475353       0.68156524383435668        0.00000000    
 -0.28302154517085021       0.67816821869596255        0.00000000    
 -0.32133857432209501       0.67228778161929303        0.00000000    
 -0.35503474491033182       0.66273941145781112        0.00000000    
 -0.38307019337045201       0.64792705278270102        0.00000000    
 -0.40427556986994434       0.62571076038572349        0.00000000    
 -0.41733854359031203       0.59322105368391076        0.00000000    
 -0.42085954025283273       0.54657076051779063        0.00000000    
 -0.41338431181982493       0.48050263603588544        0.00000000    
 -0.39365868733908443       0.38759358452104636        0.00000000    
 -0.36105304120261578       0.25757846803101175        0.00000000    