 <VTKFile type="UnstructuredGrid" version="0.1" byte_order="BigEndian">
 <UnstructuredGrid>
 <Piece NumberOfPoints="        2601 " NumberOfCells="        2500 ">
 <PointData Scalars="scalars">
 <DataArray type="Float32" NumberOfComponents="3" Name="Velocity" Format="ascii">
   0.0000000000000000        0.0000000000000000        0.00000000    
 -0.12585592682903662        0.0000000000000000        0.00000000    
 -0.25168826179462100        0.0000000000000000        0.00000000    
 -0.37744808805241209        0.0000000000000000        0.00000000    
 -0.50303778270712118        0.0000000000000000        0.00000000    
 -0.62827494106108972        0.0000000000000000        0.00000000    
 -0.75286321737880080        0.0000000000000000        0.00000000    
 -0.87633334389354378        0.0000000000000000        0.00000000    
 -0.99800029581638683        0.0000000000000000        0.00000000    
  -1.1168639901168249        0.0000000000000000        0.00000000    
  -1.2315469929469174        0.0000000000000000        0.00000000    
  -1.3401349657135506        0.0000000000000000        0.00000000    
  -1.4401055376822132        0.0000000000000000        0.00000000    
  -1.5281081866840998        0.0000000000000000        0.00000000    
  -1.5999525843246680        0.0000000000000000        0.00000000    
  -1.6504193961764195        0.0000000000000000        0.00000000    
  -1.6734909163308558        0.0000000000000000        0.00000000    
  -1.6624853163839068        0.0000000000000000        0.00000000    
  -1.6107496908251739        0.0000000000000000        0.00000000    
  -1.5126658804296131        0.0000000000000000        0.00000000    
  -1.3643942136487932        0.0000000000000000        0.00000000    
  -1.1657819029607936        0.0000000000000000        0.00000000    
 -0.92036120573025915        0.0000000000000000        0.00000000    
 -0.63594741832299839        0.0000000000000000        0.00000000    
 -0.32403892066941659        0.0000000000000000        0.00000000    
   2.1693417470964459E-003   0.0000000000000000        0.00000000    
  0.32825119301859473        0.0000000000000000        0.00000000    
  0.63976387825363390        0.0000000000000000        0.00000000    
  0.92366702764251363        0.0000000000000000        0.00000000    
   1.1685719239795112        0.0000000000000000        0.00000000    
   1.3666678750632284        0.0000000000000000        0.00000000    
   1.5144684256569083        0.0000000000000000        0.00000000    
   1.6120938382256647        0.0000000000000000        0.00000000    
   1.6634080260655830        0.0000000000000000        0.00000000    
   1.6740515632665578        0.0000000000000000        0.00000000    
   1.6506857372059198        0.0000000000000000        0.00000000    
   1.6000008797375809        0.0000000000000000        0.00000000    
   1.5280034163629370        0.0000000000000000        0.00000000    
   1.4399031310912660        0.0000000000000000        0.00000000    
   1.3398760553710252        0.0000000000000000        0.00000000    
   1.2312623089741002        0.0000000000000000        0.00000000    
   1.1165748953663810        0.0000000000000000        0.00000000    
  0.99772201051683318        0.0000000000000000        0.00000000    
  0.87607604793553717        0.0000000000000000        0.00000000    
  0.75263416875995071        0.0000000000000000        0.00000000    
  0.62807882459917819        0.0000000000000000        0.00000000    
  0.50287797185665661        0.0000000000000000        0.00000000    
  0.37732665057689074        0.0000000000000000        0.00000000    
  0.25160665165700780        0.0000000000000000        0.00000000    
  0.12581492022775234        0.0000000000000000        0.00000000    
   0.0000000000000000        0.0000000000000000        0.00000000    
   0.0000000000000000       0.12538448777532393        0.00000000    
 -0.12490104064596826       0.12537395171529855        0.00000000    
 -0.24977222198778165       0.12533103622027814        0.00000000    
 -0.37456087404069466       0.12521891293646237        0.00000000    
 -0.49916290205162234       0.12497427938428303        0.00000000    
 -0.62339810561110454       0.12449955056207077        0.00000000    
 -0.74696602508322418       0.12365811117790321        0.00000000    
 -0.86941191218642211       0.12225936580719929        0.00000000    
 -0.99005293911288605       0.12005007327985591        0.00000000    
  -1.1079272973464760       0.11668943575679901        0.00000000    
  -1.2216713433308153       0.11173906515560136        0.00000000    
  -1.3294498665188730       0.10462887774362142        0.00000000    
  -1.4287669107000667        9.4660179372304296E-002   0.00000000    
  -1.5164049453888075        8.0981938390668112E-002   0.00000000    
  -1.5881918737066121        6.2650813764642349E-002   0.00000000    
  -1.6390644576347313        3.8689999288984860E-002   0.00000000    
  -1.6629565758547877        8.2750463889313119E-003   0.00000000    
  -1.6532346922770800       -2.9001133582720631E-002   0.00000000    
  -1.6031091925051446       -7.2858607223440883E-002   0.00000000    
  -1.5065869818737898      -0.12174604161073362        0.00000000    
  -1.3600113677582226      -0.17309987954561001        0.00000000    
  -1.1624630696014420      -0.22305938145764348        0.00000000    
 -0.91784279733269969      -0.26698025092153338        0.00000000    
 -0.63424350322301104      -0.30103150227957703        0.00000000    
 -0.32291913888988283      -0.32220003759995874        0.00000000    
   2.1954486299540811E-003 -0.32912149347480368        0.00000000    
  0.32711636844702391      -0.32187995872911707        0.00000000    
  0.63802971098867212      -0.30054474686379851        0.00000000    
  0.92111221456202197      -0.26643957767203735        0.00000000    
   1.1652003033582854      -0.22255207021372614        0.00000000    
   1.3622819881119881      -0.17262421764162253        0.00000000    
   1.5083813406772639      -0.12127432563786970        0.00000000    
   1.6044448134333944       -7.2413187354712444E-002   0.00000000    
   1.6541474130835565       -2.8602215475140986E-002   0.00000000    
   1.6635023513669587        8.6051364498896527E-003   0.00000000    
   1.6393220811450879        3.8942367255348595E-002   0.00000000    
   1.5882347775487107        6.2831211191010039E-002   0.00000000    
   1.5163011104504349        8.1101345575528741E-002   0.00000000    
   1.4285687700765035        9.4732714228005929E-002   0.00000000    
   1.3291979863248895       0.10466658628564089        0.00000000    
   1.2213946190841816       0.11175197436351197        0.00000000    
   1.1076465593929321       0.11668495109302376        0.00000000    
  0.98978241621727603       0.12003353348813822        0.00000000    
  0.86916179967050877       0.12223450592586281        0.00000000    
  0.74674306860970596       0.12362756772161555        0.00000000    
  0.62320719386454160       0.12446511717499305        0.00000000    
  0.49900714701278520       0.12493725048999174        0.00000000    
  0.37444252964234059       0.12518015785107453        0.00000000    
  0.24969261863235434       0.12529122295906339        0.00000000    
  0.12486105564725981       0.12533354311672765        0.00000000    
   0.0000000000000000       0.12534390480667956        0.00000000    
   0.0000000000000000       0.24887343262198594        0.00000000    
 -0.12205936858601037       0.24884682662660210        0.00000000    
 -0.24407174216880720       0.24874312637902429        0.00000000    
 -0.36596728443482202       0.24849242647447045        0.00000000    
 -0.48763203086651419       0.24796894849706572        0.00000000    
 -0.60887615650408244       0.24698561726276053        0.00000000    
 -0.72940774929506835       0.24527296131126081        0.00000000    
 -0.84878202651592172       0.24246608203473122        0.00000000    
 -0.96636317970476682       0.23806693613019975        0.00000000    
  -1.0812392816381240       0.23142442837052193        0.00000000    
  -1.1921651400675033       0.22167536792057188        0.00000000    
  -1.2974216283357247       0.20772897233528015        0.00000000    
  -1.3947399330330339       0.18819681366101465        0.00000000    
  -1.4810866946086096       0.16143147356607551        0.00000000    
  -1.5526135647209716       0.12551644239666249        0.00000000    
  -1.6044006258225052        7.8485372181222007E-002   0.00000000    
  -1.6306117104460636        1.8584222810461008E-002   0.00000000    
  -1.6244436276300918       -5.5198941030710609E-002   0.00000000    
  -1.5788707264897830      -0.14235787740955702        0.00000000    
  -1.4872446642968069      -0.24039373378899276        0.00000000    
  -1.3448413952192673      -0.34342977307943240        0.00000000    
  -1.1511859156974265      -0.44393198088373981        0.00000000    
 -0.90896497197712967      -0.53294759420678439        0.00000000    
 -0.62704685807042981      -0.60058030315362931        0.00000000    
 -0.31907567635123968      -0.64194552576708597        0.00000000    
   2.2107444958187382E-003 -0.65577576002762772        0.00000000    
  0.32331426535964541      -0.64124887916105022        0.00000000    
  0.63070930946117987      -0.59948295597600931        0.00000000    
  0.91203700804721477      -0.53191030673855222        0.00000000    
   1.1538624230133625      -0.44299357148160790        0.00000000    
   1.3470839148266684      -0.34248460808711961        0.00000000    
   1.4890287668186515      -0.23945684212357576        0.00000000    
   1.5801864737830227      -0.14145053998690438        0.00000000    
   1.6253143652467326       -5.4394030540596452E-002   0.00000000    
   1.6311190588562610        1.9238655122042078E-002   0.00000000    
   1.6046290458011758        7.8980478450224573E-002   0.00000000    
   1.5526458444880973       0.12586496150886714        0.00000000    
   1.4809867864289401       0.16166168588800517        0.00000000    
   1.3945571860786139       0.18833568792416558        0.00000000    
   1.2971916183268766       0.20780134416900090        0.00000000    
   1.1919133048907053       0.22170028312312046        0.00000000    
   1.0809834230801469       0.23141597485853199        0.00000000    
  0.96611628819121353       0.23803518313666713        0.00000000    
  0.84855298600590912       0.24241817401917992        0.00000000    
  0.72920317243156929       0.24521384634344981        0.00000000    
  0.60870044014141256       0.24691885019920456        0.00000000    
  0.48748846619775837       0.24789694491482550        0.00000000    
  0.36585795897970602       0.24841699625806915        0.00000000    
  0.24399816084287757       0.24866550311044219        0.00000000    
  0.12202236187147020       0.24876803510005396        0.00000000    
   0.0000000000000000       0.24879424090037697        0.00000000    
   0.0000000000000000       0.36861893775727467        0.00000000    
 -0.11740131066293434       0.36856335015352348        0.00000000    
 -0.23472560870273637       0.36836462352158789        0.00000000    
 -0.35187695273267050       0.36791916393469432        0.00000000    
 -0.46871776321474784       0.36704911513174299        0.00000000    
 -0.58504842075216323       0.36548157944997300        0.00000000    
 -0.70057421148403465       0.36283572632620964        0.00000000    
 -0.81487810008613637       0.35858282407953185        0.00000000    
 -0.92736752796203004       0.35202211343029616        0.00000000    
  -1.0372336150958708       0.34221277488130747        0.00000000    
  -1.1433616906396014       0.32794228595549951        0.00000000    
  -1.2442677111844413       0.30762588878247055        0.00000000    
  -1.3379450817020182       0.27929689239346794        0.00000000    
  -1.4217713527724654       0.24050574080117479        0.00000000    
  -1.4922521018921484       0.18845110006505253        0.00000000    
  -1.5449570832916093       0.12004405385523798        0.00000000    
  -1.5741698419547572        3.2450671229759510E-002   0.00000000    
  -1.5731832709217255       -7.6218767864437639E-002   0.00000000    
  -1.5342842441131188      -0.20580871569040768        0.00000000    
  -1.4501854948154886      -0.35266645784437844        0.00000000    
  -1.3146287323813011      -0.50911584579484215        0.00000000    
  -1.1254961738015294      -0.66103272553447701        0.00000000    
 -0.88866494671914942      -0.79489781308498542        0.00000000    
 -0.61118388202522345      -0.89802806665811963        0.00000000    
 -0.30728617750118892      -0.95636545957849417        0.00000000    
   2.3975229698249972E-003 -0.97232476288509007        0.00000000    
  0.31138503005247598      -0.95478971958144054        0.00000000    
  0.61440838710740064      -0.89635932762208159        0.00000000    
  0.89158180293719624      -0.79353385309182189        0.00000000    
   1.1280960417752204      -0.65970847153114576        0.00000000    
   1.3168765411085881      -0.50777047829713962        0.00000000    
   1.4519823699047532      -0.35122041781551838        0.00000000    
   1.5355440077561111      -0.20440505980795956        0.00000000    
   1.5739808315854498       -7.5002963028054717E-002   0.00000000    
   1.5746087458550175        3.3416255301141062E-002   0.00000000    
   1.5451476137078344       0.12075531040441209        0.00000000    
   1.4922752607908356       0.18894698073354341        0.00000000    
   1.4216864790959292       0.24082881218313459        0.00000000    
   1.3377940961810033       0.27949185829752987        0.00000000    
   1.2440779865365810       0.30772817122815321        0.00000000    
   1.1431527439674893       0.32797833780121011        0.00000000    
   1.0370199618757763       0.34220191471135808        0.00000000    
  0.92715952590897721       0.35197814893334767        0.00000000    
  0.81468386669449588       0.35851550794792930        0.00000000    
  0.70039942823064194       0.36275210573117112        0.00000000    
  0.58489756063452691       0.36538653441553537        0.00000000    
  0.46859385861703023       0.36694628234247034        0.00000000    
  0.35178232735968429       0.36781104452105662        0.00000000    
  0.23466172473002600       0.36825320395345912        0.00000000    
  0.11736915213551107       0.36845005490166682        0.00000000    
   0.0000000000000000       0.36850508455037623        0.00000000    
   0.0000000000000000       0.48286432115255140        0.00000000    
 -0.11104209845983111       0.48276266454499611        0.00000000    
 -0.22196535411190302       0.48241415113964176        0.00000000    
 -0.33263399054327014       0.48169090439769024        0.00000000    
 -0.44287882209993262       0.48036430326357743        0.00000000    
 -0.55247605562812874       0.47809556749428039        0.00000000    
 -0.66112771174336349       0.47440046838143002        0.00000000    
 -0.76843103317443540       0.46862657301091132        0.00000000    
 -0.87385133099602319       0.45988936835764843        0.00000000    
 -0.97667338090860290       0.44703493183362536        0.00000000    
  -1.0759585690008078       0.42853466352506198        0.00000000    
  -1.1704599418439861       0.40244217086061806        0.00000000    
  -1.2585440750351233       0.36624337484747510        0.00000000    
  -1.3380237356274356       0.31686644450911622        0.00000000    
  -1.4060036710527051       0.25055232798561766        0.00000000    
  -1.4585293121057423       0.16317468687934911        0.00000000    
  -1.4904505815037545        5.0455294701485916E-002   0.00000000    
  -1.4948139103729772       -9.0845416627535577E-002   0.00000000    
  -1.4635036603308653      -0.26139014022269824        0.00000000    
  -1.3875195947567169      -0.45716665954612756        0.00000000    
  -1.2600324668589711      -0.66765836212204199        0.00000000    
  -1.0768311756973552      -0.87482290380133443        0.00000000    
 -0.84303987152743820       -1.0517290261902630        0.00000000    
 -0.57440277532387285       -1.1873138890785013        0.00000000    
 -0.28695627448715416       -1.2584227278161264        0.00000000    
   2.1576544004372950E-003  -1.2690640111726161        0.00000000    
  0.29068700164134459       -1.2555662124306894        0.00000000    
  0.57742533158962306       -1.1853434066809683        0.00000000    
  0.84577203542359514       -1.0500687682002980        0.00000000    
   1.0794469463746814      -0.87336156616795235        0.00000000    
   1.2624119109833525      -0.66586169232759507        0.00000000    
   1.3892871293258942      -0.45510907847321114        0.00000000    
   1.4646587721895588      -0.25944849105155493        0.00000000    
   1.4954905159511023       -8.9226895657258415E-002   0.00000000    
   1.4908129375700423        5.1691069064013585E-002   0.00000000    
   1.4586867958886167       0.16406899902871580        0.00000000    
   1.4060336353735474       0.25116004414029602        0.00000000    
   1.3379786798961490       0.31726073312229364        0.00000000    
   1.2584488561866374       0.36648339855913237        0.00000000    
   1.1703324441361749       0.40257041355172840        0.00000000    
   1.0758123540260749       0.42858269447546771        0.00000000    
  0.97651874013109774       0.44702522496193886        0.00000000    
  0.87369715356916033       0.45983813609189766        0.00000000    
  0.76828394814975920       0.46854566362712702        0.00000000    
  0.66099335289270045       0.47429826476561376        0.00000000    
  0.55235850490021299       0.47797837425844009        0.00000000    
  0.44278140240190833       0.48023653216011647        0.00000000    
  0.33255899615236534       0.48155601879880272        0.00000000    
  0.22191450192685505       0.48227461418186862        0.00000000    
  0.11101640878846632       0.48262059875419727        0.00000000    
   0.0000000000000000       0.48272139031581413        0.00000000    
   0.0000000000000000       0.58999244561601982        0.00000000    
 -0.10314105288094363       0.58981891967992361        0.00000000    
 -0.20610898532204083       0.58925031203604383        0.00000000    
 -0.30871700891797160       0.58813263082146994        0.00000000    
 -0.41075034376857866       0.58620196955988180        0.00000000    
 -0.51195129491230973       0.58305731084763823        0.00000000    
 -0.61200226192783069       0.57814257142769843        0.00000000    
 -0.71050725118570257       0.57069400180183449        0.00000000    
 -0.80696936021139087       0.55970556499937230        0.00000000    
 -0.90076430754948777       0.54383694795885018        0.00000000    
 -0.99110549584233565       0.52136023567975798        0.00000000    
  -1.0769959938687721       0.49000967719030519        0.00000000    
  -1.1571569871736280       0.44692219762031704        0.00000000    
  -1.2299097423119452       0.38842123415531127        0.00000000    
  -1.2929792573495626       0.31004817855632866        0.00000000    
  -1.3431579910199076       0.20638439251488924        0.00000000    
  -1.3757465309237558        7.1756570104444681E-002   0.00000000    
  -1.3842209105667853       -9.9307823538381648E-002   0.00000000    
  -1.3590485298014443      -0.30940921800714694        0.00000000    
  -1.2894182470903697      -0.55476080039438047        0.00000000    
  -1.1653897342910688      -0.82157875110731027        0.00000000    
 -0.98313765546226550       -1.0863547951369039        0.00000000    
 -0.75576431416540646       -1.3013607126103428        0.00000000    
 -0.50979511426255519       -1.4522874458671708        0.00000000    
 -0.25888497356554419       -1.5318047668835519        0.00000000    
   1.2523719751120542E-003  -1.5449322041773923        0.00000000    
  0.26198230624467927       -1.5289562585639136        0.00000000    
  0.51301789792870012       -1.4497262363207684        0.00000000    
  0.75849283813811508       -1.2995065294762047        0.00000000    
  0.98591372400377930       -1.0850185339713230        0.00000000    
   1.1678312737369523      -0.81908614912203204        0.00000000    
   1.2910515565676570      -0.55197901177794395        0.00000000    
   1.3600279684459717      -0.30692548262044927        0.00000000    
   1.3847879849161502       -9.7340518009945615E-002   0.00000000    
   1.3760449249995741        7.3226489844850598E-002   0.00000000    
   1.3433071871369224       0.20739862965497047        0.00000000    
   1.2930631401883028       0.31072880256195962        0.00000000    
   1.2299421671954440       0.38886909300706990        0.00000000    
   1.1571483015100767       0.44719992482740301        0.00000000    
   1.0769554581984035       0.49016434531260700        0.00000000    
  0.99104110553344127       0.52142441315743293        0.00000000    
  0.90068479956634562       0.54383463808459553        0.00000000    
  0.80688176348012397       0.55965456117645473        0.00000000    
  0.71041824983062996       0.57060717623620438        0.00000000    
  0.61191702311609031       0.57802979531248877        0.00000000    
  0.51187429934470419       0.58292563877818504        0.00000000    
  0.41068492177992355       0.58605697271297963        0.00000000    
  0.30866582170756013       0.58797831091108632        0.00000000    
  0.20607385224440902       0.58909001308038800        0.00000000    
  0.10312319903484234       0.58965517417040270        0.00000000    
   0.0000000000000000       0.58982765100877232        0.00000000    
   0.0000000000000000       0.68856248094477623        0.00000000    
  -9.3897310519370419E-002  0.68828841592000434        0.00000000    
 -0.18755632876514122       0.68740893436315686        0.00000000    
 -0.28072775938282724       0.68575463000836112        0.00000000    
 -0.37313919627464437       0.68302590853288137        0.00000000    
 -0.46448492734967006       0.67878121931398794        0.00000000    
 -0.55441196485023381       0.67239783116239560        0.00000000    
 -0.64251092370423557       0.66304385196994231        0.00000000    
 -0.72829848929729935       0.64960654894437564        0.00000000    
 -0.81120958838365875       0.63064316720217695        0.00000000    
 -0.89057017446896314       0.60425694433811628        0.00000000    
 -0.96558573965285310       0.56802018146493105        0.00000000    
  -1.0352779802075414       0.51876607243138917        0.00000000    
  -1.0984341044187678       0.45248737863838800        0.00000000    
  -1.1533916293983077       0.36401020771089149        0.00000000    
  -1.1977770038441244       0.24698759755659447        0.00000000    
  -1.2276384533406146        9.3604471255834973E-002   0.00000000    
  -1.2364987640333329      -0.10381992885218660        0.00000000    
  -1.2143731932316071      -0.35219397312373929        0.00000000    
  -1.1456456807822026      -0.65033276700163933        0.00000000    
  -1.0148568400318838      -0.98082308643457128        0.00000000    
 -0.83446611550901628       -1.2897522346372932        0.00000000    
 -0.63533070410883863       -1.5244710128088246        0.00000000    
 -0.42993021956851607       -1.6805458234808084        0.00000000    
 -0.21854881037398297       -1.7658369352117873        0.00000000    
   8.3723333597115731E-004  -1.7904224253519341        0.00000000    
  0.22068150474698384       -1.7640392436113406        0.00000000    
  0.43275300303260050       -1.6777493375558095        0.00000000    
  0.63831718984332064       -1.5225215485913568        0.00000000    
  0.83715315705596371       -1.2882593548473462        0.00000000    
   1.0170679778929930      -0.97767667005593584        0.00000000    
   1.1472072187103171      -0.64674696251898878        0.00000000    
   1.2152954867492864      -0.34922113805755445        0.00000000    
   1.2369781330182099      -0.10148643398025534        0.00000000    
   1.2278999580493519        9.5194746366108640E-002   0.00000000    
   1.1980187514166958       0.24805043454273917        0.00000000    
   1.1535961525380054       0.36474476966687525        0.00000000    
   1.0985904496957952       0.45298093542825152        0.00000000    
   1.0353885174713882       0.51908502032003756        0.00000000    
  0.96565395929369768       0.56820779658708009        0.00000000    
  0.89060464388708038       0.60434577972358539        0.00000000    
  0.81121751569221678       0.63065785924534545        0.00000000    
  0.72828776967235487       0.64956527892390270        0.00000000    
  0.64248793802920934       0.66296096331066134        0.00000000    
  0.55438255591626573       0.67228377888923707        0.00000000    
  0.46445368873858867       0.67864440986603980        0.00000000    
  0.37310996137299429       0.68287247180528543        0.00000000    
  0.28070338670317713       0.68558965300626507        0.00000000    
  0.18753895091760242       0.68723624356136859        0.00000000    
   9.3888281526258138E-002  0.68811143419705878        0.00000000    
   0.0000000000000000       0.68838403973788242        0.00000000    
   0.0000000000000000       0.77735263175029257        0.00000000    
  -8.3544960702607460E-002  0.77694164470140892        0.00000000    
 -0.16677817700889916       0.77564904824718361        0.00000000    
 -0.24937796834661807       0.77328684568559403        0.00000000    
 -0.33100500894646079       0.76953327718451392        0.00000000    
 -0.41129057980649752       0.76390625839081194        0.00000000    
 -0.48983250131644984       0.75574285555956910        0.00000000    
 -0.56618126281399828       0.74414765074479050        0.00000000    
 -0.63984254668282525       0.72795270047742422        0.00000000    
 -0.71025908644024527       0.70562575300535446        0.00000000    
 -0.77682367585262302       0.67520062976187278        0.00000000    
 -0.83884617728897826       0.63411565513206647        0.00000000    
 -0.89557417152702423       0.57909192221696382        0.00000000    
 -0.94609518323098707       0.50583974889879457        0.00000000    
 -0.98931091542671823       0.40883217338364647        0.00000000    
  -1.0235178360567767       0.28075899913957481        0.00000000    
  -1.0459848881028728       0.11216263528731413        0.00000000    
  -1.0504353614274604      -0.10906625533791559        0.00000000    
  -1.0259383446535455      -0.39356919412697716        0.00000000    
 -0.95059851233128412      -0.75302386938421040        0.00000000    
 -0.81953713804852424       -1.1399811995005995        0.00000000    
 -0.66468893799437079       -1.4658320591267910        0.00000000    
 -0.50630666489188214       -1.7059078875795000        0.00000000    
 -0.34261848087124552       -1.8681966329935538        0.00000000    
 -0.17253344316363359       -1.9596515909371028        0.00000000    
   7.4355959459770384E-004  -1.9892698352636244        0.00000000    
  0.17409924963973716       -1.9583908143173110        0.00000000    
  0.34469187571528559       -1.8660609097568195        0.00000000    
  0.50876465088030276       -1.7038459542874231        0.00000000    
  0.66682776601965488       -1.4638330461033231        0.00000000    
  0.82150170062461880       -1.1366907469701673        0.00000000    
  0.95231968566668901      -0.74868911165127394        0.00000000    
   1.0267943422680128      -0.38984089193287497        0.00000000    
   1.0508114461746201      -0.10656538994295603        0.00000000    
   1.0464463028890973       0.11371807427838451        0.00000000    
   1.0239811885325640       0.28187449177104745        0.00000000    
  0.98970240231928208       0.40962316977547381        0.00000000    
  0.94641693033647323       0.50639478895558176        0.00000000    
  0.89582547856770423       0.57946563496266523        0.00000000    
  0.83903895437679732       0.63434935301511142        0.00000000    
  0.77696657618107234       0.67532700940614132        0.00000000    
  0.71036233087135547       0.70566909883193307        0.00000000    
  0.63991429390998533       0.72793292084323569        0.00000000    
  0.56622911978439028       0.74407942803667682        0.00000000    
  0.48986263930841334       0.75563827960110608        0.00000000    
  0.41130824827548407       0.76377427185557112        0.00000000    
  0.33101435722976663       0.76938133404638831        0.00000000    
  0.24938224783888779       0.77312058168822428        0.00000000    
  0.16677974519869279       0.77547336093540509        0.00000000    
   8.3545363812255927E-002  0.77676047573816454        0.00000000    
   0.0000000000000000       0.77716975192397053        0.00000000    
   0.0000000000000000       0.85538555436608166        0.00000000    
  -7.2345994047426115E-002  0.85480072564731913        0.00000000    
 -0.14430156757207824       0.85297980573147447        0.00000000    
 -0.21546871520328773       0.84972407534312944        0.00000000    
 -0.28543158956296333       0.84468701001286450        0.00000000    
 -0.35375305281346980       0.83736060632794773        0.00000000    
 -0.41996216713714218       0.82704058900083688        0.00000000    
 -0.48355805387266165       0.81279560972404696        0.00000000    
 -0.54399443530716374       0.79340344935928242        0.00000000    
 -0.60069654430740371       0.76729469352291535        0.00000000    
 -0.65303865434974850       0.73243942709313981        0.00000000    
 -0.70038182376988933       0.68624356444601042        0.00000000    
 -0.74202671711808033       0.62533793322805120        0.00000000    
 -0.77727175690593775       0.54536081856345364        0.00000000    
 -0.80526068108265303       0.44051678502917285        0.00000000    
 -0.82497357568474095       0.30299522254912054        0.00000000    