 <VTKFile type="UnstructuredGrid" version="0.1" byte_order="BigEndian">
 <UnstructuredGrid>
 <Piece NumberOfPoints="        2601 " NumberOfCells="        2500 ">
 <PointData Scalars="scalars">
 <DataArray type="Float32" NumberOfComponents="3" Name="Velocity" Format="ascii">
   0.0000000000000000        0.0000000000000000        0.00000000    
  -2.2418854704109894E-002   0.0000000000000000        0.00000000    
  -4.4502141555710403E-002   0.0000000000000000        0.00000000    
  -6.5918493851889165E-002   0.0000000000000000        0.00000000    
  -8.6344935629429270E-002   0.0000000000000000        0.00000000    
 -0.10547108054021249        0.0000000000000000        0.00000000    
 -0.12300328291489764        0.0000000000000000        0.00000000    
 -0.13866878270075159        0.0000000000000000        0.00000000    
 -0.15221973050009449        0.0000000000000000        0.00000000    
 -0.16343714565216477        0.0000000000000000        0.00000000    
 -0.17213463261996720        0.0000000000000000        0.00000000    
 -0.17816191410567181        0.0000000000000000        0.00000000    
 -0.18140795054709868        0.0000000000000000        0.00000000    
 -0.18180370997886666        0.0000000000000000        0.00000000    
 -0.17932431887843017        0.0000000000000000        0.00000000    
 -0.17399066897904750        0.0000000000000000        0.00000000    
 -0.16587019947087955        0.0000000000000000        0.00000000    
 -0.15507695333471092        0.0000000000000000        0.00000000    
 -0.14177065006893122        0.0000000000000000        0.00000000    
 -0.12615490914160155        0.0000000000000000        0.00000000    
 -0.10847442702560833        0.0000000000000000        0.00000000    
  -8.9011286402671197E-002   0.0000000000000000        0.00000000    
  -6.8080289233766383E-002   0.0000000000000000        0.00000000    
  -4.6023532909940948E-002   0.0000000000000000        0.00000000    
  -2.3204228304007139E-002   0.0000000000000000        0.00000000    
  -1.9786761467187931E-011   0.0000000000000000        0.00000000    
   2.3204228224058578E-002   0.0000000000000000        0.00000000    
   4.6023532880607051E-002   0.0000000000000000        0.00000000    
   6.8080289174382441E-002   0.0000000000000000        0.00000000    
   8.9011286354585106E-002   0.0000000000000000        0.00000000    
  0.10847442695880294        0.0000000000000000        0.00000000    
  0.12615490916225891        0.0000000000000000        0.00000000    
  0.14177065016620774        0.0000000000000000        0.00000000    
  0.15507695350557876        0.0000000000000000        0.00000000    
  0.16587019964638253        0.0000000000000000        0.00000000    
  0.17399066926662934        0.0000000000000000        0.00000000    
  0.17932431915903163        0.0000000000000000        0.00000000    
  0.18180371020766670        0.0000000000000000        0.00000000    
  0.18140795083661088        0.0000000000000000        0.00000000    
  0.17816191453737354        0.0000000000000000        0.00000000    
  0.17213463312833979        0.0000000000000000        0.00000000    
  0.16343714606800597        0.0000000000000000        0.00000000    
  0.15221973084582449        0.0000000000000000        0.00000000    
  0.13866878298231369        0.0000000000000000        0.00000000    
  0.12300328320791971        0.0000000000000000        0.00000000    
  0.10547108083267552        0.0000000000000000        0.00000000    
   8.6344935923587898E-002   0.0000000000000000        0.00000000    
   6.5918494145533982E-002   0.0000000000000000        0.00000000    
   4.4502141757940240E-002   0.0000000000000000        0.00000000    
   2.2418854815248811E-002   0.0000000000000000        0.00000000    
   0.0000000000000000        0.0000000000000000        0.00000000    
   0.0000000000000000        2.2548978940589638E-002   0.00000000    
  -2.2509060227505626E-002   2.2380423738631493E-002   0.00000000    
  -4.4681563594121204E-002   2.1876854196037982E-002   0.00000000    
  -6.6185140636255566E-002   2.1044562796866992E-002   0.00000000    
  -8.6695804523866965E-002   1.9894030431185983E-002   0.00000000    
 -0.10590212221810358        1.8439919616528588E-002   0.00000000    
 -0.12350939600594381        1.6701043841696191E-002   0.00000000    
 -0.13924377164510374        1.4700318707364471E-002   0.00000000    
 -0.15285632248801118        1.2464666865129049E-002   0.00000000    
 -0.16412696535646018        1.0024877872540064E-002   0.00000000    
 -0.17286826483222392        7.4153950589673900E-003   0.00000000    
 -0.17892892136045493        4.6740292010455384E-003   0.00000000    
 -0.18219700350155227        1.8415753767252077E-003   0.00000000    
 -0.18260266979323417       -1.0386639139467373E-003   0.00000000    
 -0.18012044742694985       -3.9214640704485319E-003   0.00000000    
 -0.17477078623354692       -6.7603617940227871E-003   0.00000000    
 -0.16662097123657843       -9.5084377297459787E-003   0.00000000    
 -0.15578511620287502       -1.2119178694626118E-002   0.00000000    
 -0.14242335278255638       -1.4547403466889337E-002   0.00000000    
 -0.12673997888046232       -1.6750227040245601E-002   0.00000000    
 -0.10898072266661132       -1.8688027147591893E-002   0.00000000    
  -8.9428963150784857E-002  -2.0325389004381716E-002   0.00000000    
  -6.8401108971460192E-002  -2.1631978484565145E-002   0.00000000    
  -4.6241078305028223E-002  -2.2583324744017936E-002   0.00000000    
  -2.3314115845351251E-002  -2.3161458625945899E-002   0.00000000    
  -6.2593738737636398E-011  -2.3355401778687154E-002   0.00000000    
   2.3314115756628628E-002  -2.3161458622035686E-002   0.00000000    
   4.6241078178884794E-002  -2.2583324761121876E-002   0.00000000    
   6.8401108881247577E-002  -2.1631978473341886E-002   0.00000000    
   8.9428963017131977E-002  -2.0325388983462752E-002   0.00000000    
  0.10898072252698764       -1.8688027143820507E-002   0.00000000    
  0.12673997875751419       -1.6750227148155140E-002   0.00000000    
  0.14242335279937671       -1.4547403575367266E-002   0.00000000    
  0.15578511630126113       -1.2119178741304994E-002   0.00000000    
  0.16662097141607987       -9.5084377688171660E-003   0.00000000    
  0.17477078638505719       -6.7603618390391770E-003   0.00000000    
  0.18012044755738832       -3.9214639973795401E-003   0.00000000    
  0.18260266999592403       -1.0386640074653767E-003   0.00000000    
  0.18219700380870446        1.8415753050696770E-003   0.00000000    
  0.17892892171745364        4.6740290806653352E-003   0.00000000    
  0.17286826521275131        7.4153950791483259E-003   0.00000000    
  0.16412696574113092        1.0024877940747539E-002   0.00000000    
  0.15285632279237024        1.2464666947344672E-002   0.00000000    
  0.13924377191417567        1.4700318724604164E-002   0.00000000    
  0.12350939625940029        1.6701043828612289E-002   0.00000000    
  0.10590212248323570        1.8439919618496083E-002   0.00000000    
   8.6695804828724798E-002   1.9894030387797412E-002   0.00000000    
   6.6185140903988193E-002   2.1044562877895009E-002   0.00000000    
   4.4681563774646174E-002   2.1876854293632834E-002   0.00000000    
   2.2509060312131353E-002   2.2380423828027029E-002   0.00000000    
   0.0000000000000000        2.2548979046958996E-002   0.00000000    
   0.0000000000000000        4.5278766836331065E-002   0.00000000    
  -2.2779550497931914E-002   4.4940672473683801E-002   0.00000000    
  -4.5219592266723410E-002   4.3930576470152478E-002   0.00000000    
  -6.6984779663811528E-002   4.2261030772987290E-002   0.00000000    
  -8.7748086727477040E-002   3.9952959124347917E-002   0.00000000    
 -0.10719498502732414        3.7035632513509831E-002   0.00000000    
 -0.12502758874046926        3.3546633892625598E-002   0.00000000    
 -0.14096881441012526        2.9531755237999963E-002   0.00000000    
 -0.15476644352154953        2.5044835364897430E-002   0.00000000    
 -0.16619714389618007        2.0147477475630757E-002   0.00000000    
 -0.17507027384713494        1.4908649509690286E-002   0.00000000    
 -0.18123152850249941        9.4041103154290477E-003   0.00000000    
 -0.18456619208358610        3.7156641113046378E-003   0.00000000    
 -0.18500205732036928       -2.0697972532393821E-003   0.00000000    
 -0.18251173286574940       -7.8614539463441185E-003   0.00000000    
 -0.17711440882664689       -1.3565933803042362E-002   0.00000000    
 -0.16887678569776191       -1.9088880749979217E-002   0.00000000    
 -0.15791325986203575       -2.4336693687003908E-002   0.00000000    
 -0.14438509179619363       -2.9218397328471483E-002   0.00000000    
 -0.12849868980531423       -3.3647586645159558E-002   0.00000000    
 -0.11050279594790172       -3.7544395370824726E-002   0.00000000    
  -9.0684755422775570E-002  -4.0837398736878180E-002   0.00000000    
  -6.9365752166940992E-002  -4.3465404231721239E-002   0.00000000    
  -4.6895238465326783E-002  -4.5379021508712918E-002   0.00000000    
  -2.3644555690402892E-002  -4.6541985306838465E-002   0.00000000    
  -1.3073890896089588E-010  -4.6932124685089567E-002   0.00000000    
   2.3644555408643620E-002  -4.6541985319111669E-002   0.00000000    
   4.6895238212138639E-002  -4.5379021500783601E-002   0.00000000    
   6.9365751844567489E-002  -4.3465404212276675E-002   0.00000000    
   9.0684755131357764E-002  -4.0837398711696060E-002   0.00000000    
  0.11050279570206314       -3.7544395410924754E-002   0.00000000    
  0.12849868958419711       -3.3647586750594469E-002   0.00000000    
  0.14438509152488913       -2.9218397529005111E-002   0.00000000    
  0.15791325967411735       -2.4336693806578526E-002   0.00000000    
  0.16887678557266930       -1.9088880860095556E-002   0.00000000    
  0.17711440874628995       -1.3565933793757843E-002   0.00000000    
  0.18251173285164335       -7.8614539727548741E-003   0.00000000    
  0.18500205737953118       -2.0697973927972452E-003   0.00000000    
  0.18456619217773329        3.7156639462409343E-003   0.00000000    
  0.18123152864194242        9.4041101933152130E-003   0.00000000    
  0.17507027395491997        1.4908649539734356E-002   0.00000000    
  0.16619714402237451        2.0147477511422769E-002   0.00000000    
  0.15476644371089801        2.5044835496686440E-002   0.00000000    
  0.14096881454939797        2.9531755291029489E-002   0.00000000    
  0.12502758885978568        3.3546633879323835E-002   0.00000000    
  0.10719498521026624        3.7035632440393984E-002   0.00000000    
   8.7748086921225807E-002   3.9952959105510555E-002   0.00000000    
   6.6984779833462835E-002   4.2261030890687223E-002   0.00000000    
   4.5219592404020639E-002   4.3930576650637390E-002   0.00000000    
   2.2779550560907129E-002   4.4940672650410782E-002   0.00000000    
   0.0000000000000000        4.5278767002970198E-002   0.00000000    
   0.0000000000000000        6.8369921354229909E-002   0.00000000    
  -2.3229912393060555E-002   6.7860344941705592E-002   0.00000000    
  -4.6115465791157530E-002   6.6337863231456948E-002   0.00000000    
  -6.8316407340096169E-002   6.3821236955622945E-002   0.00000000    
  -8.9500716467598718E-002   6.0341733035136867E-002   0.00000000    
 -0.10934872806829304        5.5943132280083657E-002   0.00000000    
 -0.12755729986067885        5.0681673254963283E-002   0.00000000    
 -0.14384394611524645        4.4625951244023840E-002   0.00000000    
 -0.15795099556714151        3.7856681163865653E-002   0.00000000    
 -0.16964963117987697        3.0466330682982570E-002   0.00000000    
 -0.17874387279195994        2.2558530644637198E-002   0.00000000    
 -0.18507429037979911        1.4247263949884586E-002   0.00000000    
 -0.18852150739460791        5.6557533363394167E-003   0.00000000    
 -0.18900922350871424       -3.0849431318734060E-003   0.00000000    
 -0.18650681682197348       -1.1837677482951205E-002   0.00000000    
 -0.18103121704896374       -2.0461272618837602E-002   0.00000000    
 -0.17264812428764437       -2.8812896623840182E-002   0.00000000    
 -0.16147226326084546       -3.6750703722789262E-002   0.00000000    
 -0.14766677836829559       -4.4136679530303188E-002   0.00000000    
 -0.13144150068634669       -5.0839623608019385E-002   0.00000000    
 -0.11305024188353013       -5.6738150749649795E-002   0.00000000    
  -9.2786930459522923E-002  -6.1723635151935165E-002   0.00000000    
  -7.0980802871161791E-002  -6.5702938639799896E-002   0.00000000    
  -4.7990580598108006E-002  -6.8600863156991113E-002   0.00000000    
  -2.4197892157459006E-002  -7.0362155025342654E-002   0.00000000    
  -2.7450535335724816E-010  -7.0953042595479521E-002   0.00000000    
   2.4197891584205818E-002  -7.0362154993091897E-002   0.00000000    
   4.7990579956789368E-002  -6.8600863154091279E-002   0.00000000    
   7.0980802270744076E-002  -6.5702938587041404E-002   0.00000000    
   9.2786929866145479E-002  -6.1723635198063058E-002   0.00000000    
  0.11305024133803061       -5.6738150811896815E-002   0.00000000    
  0.13144150020784257       -5.0839623783023959E-002   0.00000000    
  0.14766677791471503       -4.4136679636003123E-002   0.00000000    
  0.16147226269844725       -3.6750703911765652E-002   0.00000000    
  0.17264812373768654       -2.8812896739820706E-002   0.00000000    
  0.18103121661890384       -2.0461272768322242E-002   0.00000000    
  0.18650681659053830       -1.1837677615468004E-002   0.00000000    
  0.18900922330848274       -3.0849432697965264E-003   0.00000000    
  0.18852150717901478        5.6557531500175465E-003   0.00000000    
  0.18507429018118124        1.4247263786758254E-002   0.00000000    
  0.17874387272916525        2.2558530611529022E-002   0.00000000    
  0.16964963118481280        3.0466330695787237E-002   0.00000000    
  0.15795099559932610        3.7856681228239382E-002   0.00000000    
  0.14384394624323782        4.4625951318737873E-002   0.00000000    
  0.12755729999705007        5.0681673231553766E-002   0.00000000    
  0.10934872813952344        5.5943132218590784E-002   0.00000000    
   8.9500716553640600E-002   6.0341732979058628E-002   0.00000000    
   6.8316407423163472E-002   6.3821237137636280E-002   0.00000000    
   4.6115465808955494E-002   6.6337863445252068E-002   0.00000000    
   2.3229912411392366E-002   6.7860345158910693E-002   0.00000000    
   0.0000000000000000        6.8369921561698174E-002   0.00000000    
   0.0000000000000000        9.2002385021900626E-002   0.00000000    
  -2.3859360371033072E-002   9.1318456355346259E-002   0.00000000    
  -4.7367710961134457E-002   8.9274958089393536E-002   0.00000000    
  -7.0178071993844723E-002   8.5896746895500004E-002   0.00000000    
  -9.1951534236414806E-002   8.1225296581841813E-002   0.00000000    
 -0.11236135609058827        7.5318704174036244E-002   0.00000000    
 -0.13109707623024774        6.8251695118901598E-002   0.00000000    
 -0.14786870534571625        6.0115506389045448E-002   0.00000000    
 -0.16241089228570652        5.1017663838438580E-002   0.00000000    
 -0.17448713093552554        4.1081523466202932E-002   0.00000000    
 -0.18389382846911292        3.0445577952026796E-002   0.00000000    
 -0.19046429744406893        1.9262403885804944E-002   0.00000000    
 -0.19407241796403324        7.6972513411741033E-003   0.00000000    
 -0.19463602542152680       -4.0738174395759533E-003   0.00000000    
 -0.19211971083564183       -1.5866224604306714E-002   0.00000000    
 -0.18653709190380668       -2.7489644637792802E-002   0.00000000    
 -0.17795221215583562       -3.8751197821220176E-002   0.00000000    
 -0.16648014694955668       -4.9459029725237219E-002   0.00000000    
 -0.15228648958634336       -5.9426196993860939E-002   0.00000000    
 -0.13558583989025444       -6.8474734955944638E-002   0.00000000    
 -0.11663903596323420       -7.6439803764089750E-002   0.00000000    
  -9.5749315131457458E-002  -8.3173716197358166E-002   0.00000000    
  -7.3257256429361581E-002  -8.8549745829923615E-002   0.00000000    
  -4.9534758452679725E-002  -9.2465478269702250E-002   0.00000000    
  -2.4978045698606521E-002  -9.4845643233539917E-002   0.00000000    
  -4.7743968822477913E-010  -9.5644193654462667E-002   0.00000000    
   2.4978044745259918E-002  -9.4845643178579464E-002   0.00000000    
   4.9534757523532737E-002  -9.2465478245646104E-002   0.00000000    
   7.3257255462597731E-002  -8.8549745801605503E-002   0.00000000    
   9.5749314176171801E-002  -8.3173716237564324E-002   0.00000000    
  0.11663903503127042       -7.6439803903458114E-002   0.00000000    
  0.13558583889807380       -6.8474735060606112E-002   0.00000000    
  0.15228648854775681       -5.9426197148421386E-002   0.00000000    
  0.16648014603261743       -4.9459029878182369E-002   0.00000000    
  0.17795221131982392       -3.8751198066599636E-002   0.00000000    
  0.18653709117615980       -2.7489644886140946E-002   0.00000000    
  0.19211971013126139       -1.5866224859850949E-002   0.00000000    
  0.19463602484828643       -4.0738176168150144E-003   0.00000000    
  0.19407241744154025        7.6972511587828293E-003   0.00000000    
  0.19046429696031072        1.9262403663038316E-002   0.00000000    
  0.18389382801832810        3.0445577809762488E-002   0.00000000    
  0.17448713059591922        4.1081523409255090E-002   0.00000000    
  0.16241089208734574        5.1017663804070683E-002   0.00000000    
  0.14786870520177631        6.0115506412273777E-002   0.00000000    
  0.13109707615796692        6.8251695066939108E-002   0.00000000    
  0.11236135614167379        7.5318704082870946E-002   0.00000000    
   9.1951534273871496E-002   8.1225296554253576E-002   0.00000000    
   7.0178071963029734E-002   8.5896747120270123E-002   0.00000000    
   4.7367710939326964E-002   8.9274958316693978E-002   0.00000000    
   2.3859360346966375E-002   9.1318456560771685E-002   0.00000000    
   0.0000000000000000        9.2002385235413930E-002   0.00000000    
   0.0000000000000000       0.11635501112628267        0.00000000    
  -2.4666579759894107E-002  0.11549301095547275        0.00000000    
  -4.8973853203914605E-002  0.11291726806131266        0.00000000    
  -7.2566420768568354E-002  0.10865860598803774        0.00000000    
  -9.5096740583809972E-002  0.10276845990915684        0.00000000    
 -0.11622912269338154        9.5318985034676312E-002   0.00000000    
 -0.13564383723647319        8.6403088996493405E-002   0.00000000    
 -0.15304127372706150        7.6134417975723082E-002   0.00000000    
 -0.16814622874340424        6.4647133843255489E-002   0.00000000    
 -0.18071218378362011        5.2095486540953022E-002   0.00000000    
 -0.19052564413815382        3.8653011890257424E-002   0.00000000    
 -0.19741031460797889        2.4511348237429152E-002   0.00000000    
 -0.20123117047466033        9.8785219305388000E-003   0.00000000    
 -0.20189811760455897       -5.0232951844044462E-003   0.00000000    
 -0.19936929015392690       -1.9960650937923527E-002   0.00000000    
 -0.19365362109317991       -3.4692268634852565E-002   0.00000000    
 -0.18481273821565602       -4.8973099076258068E-002   0.00000000    
 -0.17296180429001712       -6.2558890504790396E-002   0.00000000    
 -0.15826938702630566       -7.5211174002953907E-002   0.00000000    
 -0.14095601675731415       -8.6702541311243747E-002   0.00000000    
 -0.12129158033198569       -9.6822001372517896E-002   0.00000000    
  -9.9591310006886785E-002 -0.10538027353999577        0.00000000    
  -7.6210598472116989E-002 -0.11221472266869295        0.00000000    
  -5.1538546185114574E-002 -0.11719381575434847        0.00000000    
  -2.5990549066961351E-002 -0.12022077975882667        0.00000000    
  -6.6588771623960451E-010 -0.12123641492846403        0.00000000    
   2.5990547758978411E-002 -0.12022077972919139        0.00000000    
   5.1538544852059699E-002 -0.11719381570409459        0.00000000    
   7.6210597136255109E-002 -0.11221472262614861        0.00000000    
   9.9591308656485716E-002 -0.10538027359136755        0.00000000    
  0.12129157884969581       -9.6822001392153412E-002   0.00000000    
  0.14095601523383805       -8.6702541434234892E-002   0.00000000    
  0.15826938560525500       -7.5211174195203900E-002   0.00000000    
  0.17296180291282442       -6.2558890785550977E-002   0.00000000    
  0.18481273700439019       -4.8973099440676106E-002   0.00000000    
  0.19365361999329170       -3.4692268983904422E-002   0.00000000    
  0.19936928922024880       -1.9960651282240335E-002   0.00000000    
  0.20189811669126703       -5.0232954243968012E-003   0.00000000    
  0.20123116967960414        9.8785216419181154E-003   0.00000000    
  0.19741031388973893        2.4511348005341313E-002   0.00000000    
  0.19052564347624892        3.8653011668005902E-002   0.00000000    
  0.18071218321634747        5.2095486358182036E-002   0.00000000    
  0.16814622826743175        6.4647133702165280E-002   0.00000000    
  0.15304127345063867        7.6134417851703648E-002   0.00000000    
  0.13564383714857428        8.6403088831595878E-002   0.00000000    
  0.11622912263880635        9.5318984899756154E-002   0.00000000    
   9.5096740514834993E-002  0.10276845995335239        0.00000000    
   7.2566420726251829E-002  0.10865860618263778        0.00000000    
   4.8973853147408347E-002  0.11291726832396558        0.00000000    
   2.4666579715966877E-002  0.11549301111522606        0.00000000    
   0.0000000000000000       0.11635501131747436        0.00000000    
   0.0000000000000000       0.14160493247524811        0.00000000    
  -2.5649514696516110E-002  0.14056036292875970        0.00000000    
  -5.0929978888293502E-002  0.13743883255171027        0.00000000    
  -7.5476087832142325E-002  0.13227689675861284        0.00000000    
  -9.8930069252285438E-002  0.12513564901456262        0.00000000    
 -0.12094558785411157       0.11610087513440810        0.00000000    
 -0.14119175285819210       0.10528325675782299        0.00000000    
 -0.15935731972279590        9.2818431673054813E-002   0.00000000    
 -0.17515499638124946        7.8866929686126949E-002   0.00000000    
 -0.18832594108373577        6.3613768043798438E-002   0.00000000    
 -0.19864426973656713        4.7267696714849629E-002   0.00000000    
 -0.20592164275406563        3.0059883920831188E-002   0.00000000    
 -0.21001165004192915        1.2242026110981930E-002   0.00000000    
 -0.21081404097169415       -5.9162849145287391E-003   0.00000000    
 -0.20827842848755485       -2.4130925072844162E-002   0.00000000    
 -0.20240750126426937       -4.2107415032399231E-002   0.00000000    
 -0.19325931696814341       -5.9545844410988175E-002   0.00000000    
 -0.18094872336475185       -7.6146497554851159E-002   0.00000000    
 -0.16564748179284630       -9.1616050923289172E-002   0.00000000    
 -0.14758319349284796      -0.10567414835082738        0.00000000    
 -0.12703667649164752      -0.11806017337916001        0.00000000    
 -0.10433798443678789      -0.12853988973037334        0.00000000    
  -7.9860861018565418E-002 -0.13691176741075259        0.00000000    
  -5.4015926199476615E-002 -0.14301258422230601        0.00000000    
  -2.7242579873587393E-002 -0.14672218092311581        0.00000000    
  -8.9436277375301515E-010 -0.14796696737521320        0.00000000    
   2.7242578056646868E-002 -0.14672218088905822        0.00000000    
   5.4015924396075513E-002 -0.14301258416494195        0.00000000    
   7.9860859255546771E-002 -0.13691176741289404        0.00000000    
  0.10433798262090899      -0.12853988966966012        0.00000000    
  0.12703667462367113      -0.11806017332689403        0.00000000    
  0.14758319158560468      -0.10567414846526661        0.00000000    
  0.16564747984937653       -9.1616051190289802E-002   0.00000000    
  0.18094872155300204       -7.6146497936438545E-002   0.00000000    
  0.19325931526655399       -5.9545844950666491E-002   0.00000000    
  0.20240749978278649       -4.2107415537674636E-002   0.00000000    
  0.20827842709840702       -2.4130925519482302E-002   0.00000000    
  0.21081403980610197       -5.9162852961411935E-003   0.00000000    
  0.21001164902444092        1.2242025697641991E-002   0.00000000    
  0.20592164182566836        3.0059883647555664E-002   0.00000000    
  0.19864426885316644        4.7267696432454341E-002   0.00000000    
  0.18832594030087416        6.3613767726000220E-002   0.00000000    
  0.17515499574137644        7.8866929445775377E-002   0.00000000    
  0.15935731915860196        9.2818431373068166E-002   0.00000000    
  0.14119175245486301       0.10528325641950412        0.00000000    
  0.12094558759087308       0.11610087499949505        0.00000000    
   9.8930069075545343E-002  0.12513564898665269        0.00000000    
   7.5476087696841374E-002  0.13227689695722120        0.00000000    
   5.0929978761655607E-002  0.13743883281588168        0.00000000    
   2.5649514636667071E-002  0.14056036300762681        0.00000000    
   0.0000000000000000       0.14160493264354995        0.00000000    
   0.0000000000000000       0.16792663927606138        0.00000000    
  -2.6805077912564691E-002  0.16669436593333783        0.00000000    
  -5.3230182306271773E-002  0.16301151528816984        0.00000000    
  -7.8898853211524886E-002  0.15692011094581704        0.00000000    
 -0.10344174028600855       0.14849042027634771        0.00000000    
 -0.12650031709351919       0.13782131607847978        0.00000000    
 -0.14773082069522309       0.12504060102261105        0.00000000    
 -0.16680838195725223       0.11030533191151362        0.00000000    
 -0.18343145625520785        9.3801896524236844E-002   0.00000000    
 -0.19732642731048319        7.5745832800719004E-002   0.00000000    
 -0.20825247558760360        5.6381124419758628E-002   0.00000000    
 -0.21600647279452945        3.5978941648762600E-002   0.00000000    
 -0.22042796089137101        1.4835578639357253E-002   0.00000000    
 -0.22140386207982279       -6.7304307981199260E-003   0.00000000    
 -0.21887294429748785       -2.8382195277123060E-002   0.00000000    
 -0.21282958896782878       -4.9769313547775799E-002   0.00000000    
 -0.20332687521375109       -7.0533730449627463E-002   0.00000000    
 -0.19047847785256472       -9.0316489307819034E-002   0.00000000    
 -0.17445942339196940      -0.10876524233372788        0.00000000    
 -0.15550523248789863      -0.12554232355455910        0.00000000    
 -0.13390957971800724      -0.14033305560623099        0.00000000    
 -0.11002012262163287      -0.15285404452972098        0.00000000    
  -8.4232758403924454E-002 -0.16286098829994944        0.00000000    
  -5.6984166702271438E-002 -0.17015577804252527        0.00000000    
  -2.8743025547994575E-002 -0.17459236286390592        0.00000000    
  -1.1876421422688804E-009 -0.17608127710136393        0.00000000    
   2.8743023210388338E-002 -0.17459236283931129        0.00000000    
   5.6984164396246637E-002 -0.17015577802081880        0.00000000    
   8.4232756086280405E-002 -0.16286098829519641        0.00000000    
  0.11002012029076545      -0.15285404440981890        0.00000000    
  0.13390957734954914      -0.14033305552346551        0.00000000    
  0.15550523013312292      -0.12554232367391341        0.00000000    
  0.17445942107318263      -0.10876524259557574        0.00000000    
  0.19047847551222810       -9.0316489804728922E-002   0.00000000    
  0.20332687308346087       -7.0533731194189805E-002   0.00000000    
  0.21282958698848783       -4.9769314219222906E-002   0.00000000    
  0.21887294261107787       -2.8382195942855220E-002   0.00000000    
  0.22140386060094294       -6.7304313917238342E-003   0.00000000    
  0.22042795957835315        1.4835578124043057E-002   0.00000000    
  0.21600647161634148        3.5978941253540786E-002   0.00000000    
  0.20825247455428911        5.6381124069439834E-002   0.00000000    
  0.19732642629695718        7.5745832430516871E-002   0.00000000    
  0.18343145529577373        9.3801896139208890E-002   0.00000000    
  0.16680838123030842       0.11030533144803409        0.00000000    
  0.14773082008552718       0.12504060056967242        0.00000000    
  0.12650031662461428       0.13782131577730494        0.00000000    
  0.10344173997587885       0.14849042016942629        0.00000000    
   7.8898852997000640E-002  0.15692011108639281        0.00000000    
   5.3230182184982863E-002  0.16301151550847573        0.00000000    
   2.6805077832521521E-002  0.16669436594803605        0.00000000    
   0.0000000000000000       0.16792663936864008        0.00000000    
   0.0000000000000000       0.19549078136877290        0.00000000    
  -2.8128797972981737E-002  0.19406515529396595        0.00000000    
  -5.5865848486147840E-002  0.18980393635813486        0.00000000    
  -8.2822619428754726E-002  0.18275418715981906        0.00000000    
 -0.10861709611707045       0.17299476313118936        0.00000000    
 -0.13287729267040335       0.16063680171961434        0.00000000    
 -0.15524499814211773       0.14582437938044515        0.00000000    
 -0.17537989321070510       0.12873506456425507        0.00000000    
 -0.19296397484888228       0.10958037420923757        0.00000000    
 -0.20770641128454798        8.8605816700853851E-002   0.00000000    
 -0.21934865148055865        6.6090482754741151E-002   0.00000000    
 -0.22766987283814547        4.2345855287923936E-002   0.00000000    
 -0.23249245663685972        1.7713789938056428E-002   0.00000000    
 -0.23368752434934961       -7.4366205304273328E-003   0.00000000    
 -0.23118008471673673       -3.2713310674825954E-002   0.00000000    
 -0.22495378410824962       -5.7706802181472727E-002   0.00000000    