 <VTKFile type="UnstructuredGrid" version="0.1" byte_order="BigEndian">
 <UnstructuredGrid>
 <Piece NumberOfPoints="        2601 " NumberOfCells="        2500 ">
 <PointData Scalars="scalars">
 <DataArray type="Float32" NumberOfComponents="3" Name="Velocity" Format="ascii">
   0.0000000000000000        0.0000000000000000        0.00000000    
  -4.9351368797075135E-002   0.0000000000000000        0.00000000    
  -9.8022775343938495E-002   0.0000000000000000        0.00000000    
 -0.14533935223696121        0.0000000000000000        0.00000000    
 -0.19063674383345514        0.0000000000000000        0.00000000    
 -0.23326665225726709        0.0000000000000000        0.00000000    
 -0.27260329259816013        0.0000000000000000        0.00000000    
 -0.30805003640042805        0.0000000000000000        0.00000000    
 -0.33904737925973183        0.0000000000000000        0.00000000    
 -0.36508101285773831        0.0000000000000000        0.00000000    
 -0.38569133557706503        0.0000000000000000        0.00000000    
 -0.40048277515907160        0.0000000000000000        0.00000000    
 -0.40913424980885388        0.0000000000000000        0.00000000    
 -0.41140889342118520        0.0000000000000000        0.00000000    
 -0.40716415388606492        0.0000000000000000        0.00000000    
 -0.39636036105805406        0.0000000000000000        0.00000000    
 -0.37906850086177535        0.0000000000000000        0.00000000    
 -0.35547553367919860        0.0000000000000000        0.00000000    
 -0.32588757974563315        0.0000000000000000        0.00000000    
 -0.29072981123589420        0.0000000000000000        0.00000000    
 -0.25054308322139868        0.0000000000000000        0.00000000    
 -0.20597682371965234        0.0000000000000000        0.00000000    
 -0.15777816599691299        0.0000000000000000        0.00000000    
 -0.10677755680009693        0.0000000000000000        0.00000000    
  -5.3871039308419251E-002   0.0000000000000000        0.00000000    
  -3.8386174319185476E-010   0.0000000000000000        0.00000000    
   5.3871038507799750E-002   0.0000000000000000        0.00000000    
  0.10677755595683597        0.0000000000000000        0.00000000    
  0.15777816509521322        0.0000000000000000        0.00000000    
  0.20597682264820302        0.0000000000000000        0.00000000    
  0.25054308194081831        0.0000000000000000        0.00000000    
  0.29072980981950547        0.0000000000000000        0.00000000    
  0.32588757811628244        0.0000000000000000        0.00000000    
  0.35547553196929399        0.0000000000000000        0.00000000    
  0.37906849903327905        0.0000000000000000        0.00000000    
  0.39636035935272862        0.0000000000000000        0.00000000    
  0.40716415242698811        0.0000000000000000        0.00000000    
  0.41140889181713441        0.0000000000000000        0.00000000    
  0.40913424838412299        0.0000000000000000        0.00000000    
  0.40048277402964361        0.0000000000000000        0.00000000    
  0.38569133442180298        0.0000000000000000        0.00000000    
  0.36508101150947536        0.0000000000000000        0.00000000    
  0.33904737777166483        0.0000000000000000        0.00000000    
  0.30805003499769429        0.0000000000000000        0.00000000    
  0.27260329125243443        0.0000000000000000        0.00000000    
  0.23326665112711178        0.0000000000000000        0.00000000    
  0.19063674272481571        0.0000000000000000        0.00000000    
  0.14533935133164211        0.0000000000000000        0.00000000    
   9.8022774691000167E-002   0.0000000000000000        0.00000000    
   4.9351368497523335E-002   0.0000000000000000        0.00000000    
   0.0000000000000000        0.0000000000000000        0.00000000    
   0.0000000000000000        4.9588856477458629E-002   0.00000000    
  -4.9484228111920117E-002   4.9248212131289888E-002   0.00000000    
  -9.8288372706165222E-002   4.8228810626708293E-002   0.00000000    
 -0.14573741728259557        4.6538282294874507E-002   0.00000000    
 -0.19116655019994819        4.4189713426401982E-002   0.00000000    
 -0.23392694270516703        4.1202058388330888E-002   0.00000000    
 -0.27339170584245598        3.7600815580727261E-002   0.00000000    
 -0.30896301557821110        3.3418707985123038E-002   0.00000000    
 -0.34007941958478283        2.8696508383218605E-002   0.00000000    
 -0.36622460552270802        2.3483780074335662E-002   0.00000000    
 -0.38693617738442543        1.7839582799846702E-002   0.00000000    
 -0.40181582489400502        1.1832971917443683E-002   0.00000000    
 -0.41053908711603732        5.5432318832952408E-003   0.00000000    
 -0.41286598070573344       -9.4022846816298764E-004   0.00000000    
 -0.40865054329936473       -7.5184829840674880E-003   0.00000000    
 -0.39785024600109020       -1.4084142373368393E-002   0.00000000    
 -0.38053342738706208       -2.0523072373226203E-002   0.00000000    
 -0.35688527419115645       -2.6716584619488979E-002   0.00000000    
 -0.32721088285063016       -3.2544297907756536E-002   0.00000000    
 -0.29193553756829860       -3.7887353725914910E-002   0.00000000    
 -0.25160135877157441       -4.2632091454058496E-002   0.00000000    
 -0.20686026148423103       -4.6673804159728459E-002   0.00000000    
 -0.15846312034464197       -4.9920533903291500E-002   0.00000000    
 -0.10724516954172715       -5.2296565585844411E-002   0.00000000    
  -5.4108211808502754E-002  -5.3745449324200403E-002   0.00000000    
  -3.9041560747935224E-010  -5.4232340802444816E-002   0.00000000    
   5.4108211018264775E-002  -5.3745449281897610E-002   0.00000000    
  0.10724516868433312       -5.2296565518349422E-002   0.00000000    
  0.15846311937810220       -4.9920533803201848E-002   0.00000000    
  0.20686026041788763       -4.6673803990265411E-002   0.00000000    
  0.25160135753458962       -4.2632091243748858E-002   0.00000000    
  0.29193553604902184       -3.7887353518124091E-002   0.00000000    
  0.32721088112969349       -3.2544297700925331E-002   0.00000000    
  0.35688527241695400       -2.6716584692500298E-002   0.00000000    
  0.38053342571468318       -2.0523072283446520E-002   0.00000000    
  0.39785024427446775       -1.4084142532075608E-002   0.00000000    
  0.40865054152316554       -7.5184830220320397E-003   0.00000000    
  0.41286597918521623       -9.4022854090630085E-004   0.00000000    
  0.41053908560863522        5.5432317636037358E-003   0.00000000    
  0.40181582342509148        1.1832971703343549E-002   0.00000000    
  0.38693617595737717        1.7839582997915458E-002   0.00000000    
  0.36622460397025103        2.3483780194676670E-002   0.00000000    
  0.34007941799254743        2.8696508442460023E-002   0.00000000    
  0.30896301392002051        3.3418707906503392E-002   0.00000000    
  0.27339170429946669        3.7600815487137444E-002   0.00000000    
  0.23392694118662116        4.1202058241906765E-002   0.00000000    
  0.19116654902373842        4.4189713208974205E-002   0.00000000    
  0.14573741635686147        4.6538282058506804E-002   0.00000000    
   9.8288372103067845E-002   4.8228810288058505E-002   0.00000000    
   4.9484227808869213E-002   4.9248211816506710E-002   0.00000000    
   0.0000000000000000        4.9588856189639076E-002   0.00000000    
   0.0000000000000000        9.9442241384307004E-002   0.00000000    
  -4.9880443006389316E-002   9.8760908252231744E-002   0.00000000    
  -9.9080587926251434E-002   9.6721813845515411E-002   0.00000000    
 -0.14692486107710573        9.3340006462299674E-002   0.00000000    
 -0.19274747917256901        8.8641149683102619E-002   0.00000000    
 -0.23589766170330531        8.2662606253278148E-002   0.00000000    
 -0.27574581600381720        7.5454593839525921E-002   0.00000000    
 -0.31168994957104118        6.7081781246337777E-002   0.00000000    
 -0.34316351921709043        5.7624816459399333E-002   0.00000000    
 -0.36964345081276767        4.7181996627889272E-002   0.00000000    
 -0.39065976357722887        3.5870657331335820E-002   0.00000000    
 -0.40580509543791232        2.3828282538063836E-002   0.00000000    
 -0.41474557176266580        1.1213064884103945E-002   0.00000000    
 -0.41723103270235373       -1.7963025917940023E-003   0.00000000    
 -0.41310582796165357       -1.5001647395158661E-002   0.00000000    
 -0.40231815208307736       -2.8187548259089711E-002   0.00000000    
 -0.38492869816258224       -4.1124536859195183E-002   0.00000000    
 -0.36111684947932815       -5.3573720539732660E-002   0.00000000    
 -0.33118469884629825       -6.5292303138639887E-002   0.00000000    
 -0.29555765532154549       -7.6040337079090567E-002   0.00000000    
 -0.25478156057449974       -8.5587981958826803E-002   0.00000000    
 -0.20951583472131272       -9.3723337574480314E-002   0.00000000    
 -0.16052249013051684      -0.10026008738134089        0.00000000    
 -0.10865133725465030      -0.10504471724349848        0.00000000    
  -5.4821473984074824E-002 -0.10796272032696345        0.00000000    
  -3.3795900748183699E-010 -0.10894335662137443        0.00000000    
   5.4821473244441719E-002 -0.10796272021153880        0.00000000    
  0.10865133642756523      -0.10504471709451714        0.00000000    
  0.16052248909762240      -0.10026008704778233        0.00000000    
  0.20951583349135031       -9.3723337341615032E-002   0.00000000    
  0.25478155934824953       -8.5587981644989874E-002   0.00000000    
  0.29555765398176559       -7.6040336579005274E-002   0.00000000    
  0.33118469734314931       -6.5292302859074100E-002   0.00000000    
  0.36111684781173709       -5.3573720467770251E-002   0.00000000    
  0.38492869634594368       -4.1124536867165357E-002   0.00000000    
  0.40231815024864859       -2.8187548248013453E-002   0.00000000    
  0.41310582604459439       -1.5001647470699420E-002   0.00000000    
  0.41723103075385215       -1.7963028512007586E-003   0.00000000    
  0.41474557002544837        1.1213064726676825E-002   0.00000000    
  0.40580509355452055        2.3828282469385318E-002   0.00000000    
  0.39065976154129545        3.5870657494659230E-002   0.00000000    
  0.36964344895267315        4.7181996732545403E-002   0.00000000    
  0.34316351746031143        5.7624816470788855E-002   0.00000000    
  0.31168994786524312        6.7081781230544354E-002   0.00000000    
  0.27574581415019411        7.5454593715733681E-002   0.00000000    
  0.23589766017884098        8.2662605783454385E-002   0.00000000    
  0.19274747786446822        8.8641149230374860E-002   0.00000000    
  0.14692486015137032        9.3340005828391540E-002   0.00000000    
   9.9080587313431875E-002   9.6721813268853443E-002   0.00000000    
   4.9880442659745915E-002   9.8760907609238086E-002   0.00000000    
   0.0000000000000000        9.9442240775003604E-002   0.00000000    
   0.0000000000000000       0.14981997338267219        0.00000000    
  -5.0532914236714410E-002  0.14879788170049346        0.00000000    
 -0.10038540934444187       0.14573882854260023        0.00000000    
 -0.14888139173431966       0.14066459525310776        0.00000000    
 -0.19535350661633966       0.13361264156349170        0.00000000    
 -0.23914826947729945       0.12463740712483228        0.00000000    
 -0.27963143002432461       0.11381245476625983        0.00000000    
 -0.31619467507866866       0.10123264541117589        0.00000000    
 -0.34826261601242953        8.7016808798416348E-002   0.00000000    
 -0.37530151670528389        7.1310181897048089E-002   0.00000000    
 -0.39682818602653980        5.4286798812773290E-002   0.00000000    
 -0.41242064414511503        3.6151275004369501E-002   0.00000000    
 -0.42172857691421023        1.7139824752090287E-002   0.00000000    
 -0.42448508143662206       -2.4797545064018170E-003   0.00000000    
 -0.42051750846131941       -2.2409631464004383E-002   0.00000000    
 -0.40975851757033732       -4.2324889983649368E-002   0.00000000    
 -0.39225523836421122       -6.1878588026623278E-002   0.00000000    
 -0.36817708311855901       -8.0708333780648622E-002   0.00000000    
 -0.33782052825377923       -9.8445056548938079E-002   0.00000000    
 -0.30161084418343415      -0.11472297303890065        0.00000000    
 -0.26009983829392136      -0.12919110896816258        0.00000000    
 -0.21395926812277954      -0.14152516940486132        0.00000000    
 -0.16396991165917041      -0.15143961981929044        0.00000000    
 -0.11100603830103144      -0.15869887455973020        0.00000000    
  -5.6016118872188436E-002 -0.16312700943807951        0.00000000    
  -3.4257193082254391E-010 -0.16461532351887759        0.00000000    
   5.6016118128691117E-002 -0.16312700920058620        0.00000000    
  0.11100603730055332      -0.15869887418838435        0.00000000    
  0.16396991048819973      -0.15143961933179428        0.00000000    
  0.21395926684078551      -0.14152516901784271        0.00000000    
  0.26009983675693982      -0.12919110855720309        0.00000000    
  0.30161084258805682      -0.11472297246401242        0.00000000    
  0.33782052656599526       -9.8445056088399346E-002   0.00000000    
  0.36817708108765662       -8.0708333382098263E-002   0.00000000    
  0.39225523608449508       -6.1878587963320263E-002   0.00000000    
  0.40975851532092988       -4.2324890056364937E-002   0.00000000    
  0.42051750633099516       -2.2409631492205845E-002   0.00000000    
  0.42448507921575673       -2.4797546911643712E-003   0.00000000    
  0.42172857441271550        1.7139824589364343E-002   0.00000000    
  0.41242064171209530        3.6151275018689318E-002   0.00000000    
  0.39682818379160717        5.4286798847552956E-002   0.00000000    
  0.37530151448375848        7.1310181941001652E-002   0.00000000    
  0.34826261387141777        8.7016808686679811E-002   0.00000000    
  0.31619467303294635       0.10123264537223800        0.00000000    
  0.27963142837791694       0.11381245441412234        0.00000000    
  0.23914826801954348       0.12463740636554325        0.00000000    
  0.19535350548904873       0.13361264085340069        0.00000000    
  0.14888139073427631       0.14066459436695050        0.00000000    
  0.10038540864242645       0.14573882760724360        0.00000000    
   5.0532913898019262E-002  0.14879788078669806        0.00000000    
   0.0000000000000000       0.14981997235883199        0.00000000    
   0.0000000000000000       0.20097210843212557        0.00000000    
  -5.1429516523508502E-002  0.19960946399508711        0.00000000    
 -0.10217907367046558       0.19553058499783732        0.00000000    
 -0.15157230361381543       0.18876333744987375        0.00000000    
 -0.19894041733836074       0.17935541402983665        0.00000000    
 -0.24362638632451905       0.16737665221704548        0.00000000    
 -0.28499027086869499       0.15292154005243555        0.00000000    
 -0.32241488643363558       0.13611270553312182        0.00000000    
 -0.35531323529889997       0.11710432269760400        0.00000000    
 -0.38313629868491378        9.6085915670905048E-002   0.00000000    
 -0.40538293588882568        7.3285654476915360E-002   0.00000000    
 -0.42160995414575519        4.8973177903093787E-002   0.00000000    
 -0.43144416283794046        2.3461344742246260E-002   0.00000000    
 -0.43459409248325342       -2.8935596840607976E-003   0.00000000    
 -0.43086292447475233       -2.9693287419623394E-002   0.00000000    
 -0.42016020049105091       -5.6501669845121179E-002   0.00000000    
 -0.40251326248544678       -8.2850747097974978E-002   0.00000000    
 -0.37807624788361693      -0.10825006702882360        0.00000000    
 -0.34713683220764574      -0.13219801702343473        0.00000000    
 -0.31011921930034841      -0.15419603337959090        0.00000000    
 -0.26758292847094833      -0.17376406977276182        0.00000000    
 -0.22021689071752321      -0.19045754146167027        0.00000000    
 -0.16882819535642918      -0.20388402494576818        0.00000000    
 -0.11432610294365247      -0.21371916088711770        0.00000000    
  -5.7701035230905508E-002 -0.21972043615536840        0.00000000    
  -5.5214727380553957E-010 -0.22173777602431796        0.00000000    
   5.7701034104291581E-002 -0.21972043583720230        0.00000000    
  0.11432610168291618      -0.21371916020534129        0.00000000    
  0.16882819369981925      -0.20388402420233623        0.00000000    
  0.22021688874328588      -0.19045754090193720        0.00000000    
  0.26758292646531923      -0.17376406924813698        0.00000000    
  0.31011921719474234      -0.15419603275999524        0.00000000    
  0.34713682986938232      -0.13219801628253930        0.00000000    
  0.37807624535636036      -0.10825006637851811        0.00000000    
  0.40251325984250969       -8.2850746921932741E-002   0.00000000    
  0.42016019754109601       -5.6501669753867147E-002   0.00000000    
  0.43086292135049442       -2.9693287556574580E-002   0.00000000    
  0.43459408948577616       -2.8935597963129656E-003   0.00000000    
  0.43144416009359637        2.3461344534506039E-002   0.00000000    
  0.42160995154518055        4.8973177750183602E-002   0.00000000    
  0.40538293330440289        7.3285654464685893E-002   0.00000000    
  0.38313629627817530        9.6085915570776420E-002   0.00000000    
  0.35531323298350054       0.11710432255809682        0.00000000    
  0.32241488445054672       0.13611270509435466        0.00000000    
  0.28499026917252823       0.15292153941389039        0.00000000    
  0.24362638498443082       0.16737665119943418        0.00000000    
  0.19894041616495425       0.17935541308092101        0.00000000    
  0.15157230279274991       0.18876333632295306        0.00000000    
  0.10217907311654702       0.19553058373806911        0.00000000    
   5.1429516312605970E-002  0.19960946269936691        0.00000000    
   0.0000000000000000       0.20097210724061251        0.00000000    
   0.0000000000000000       0.25313389305499850        0.00000000    
  -5.2552805094177910E-002  0.25143122604315787        0.00000000    
 -0.10442719916943739       0.24633399913274234        0.00000000    
 -0.15494757544758150       0.23787475431310581        0.00000000    
 -0.20344405019055653       0.22610981013699627        0.00000000    
 -0.24925623524565413       0.21112163429327321        0.00000000    
 -0.29173733793400791       0.19302276890716136        0.00000000    
 -0.33025991073658911       0.17195988822228700        0.00000000    
 -0.36422207255908040       0.14811887327832204        0.00000000    
 -0.39305601648357463       0.12172959432311016        0.00000000    
 -0.41623698373400658        9.3070801484707977E-002   0.00000000    
 -0.43329480471650389        6.2474090575508866E-002   0.00000000    
 -0.44382563386557106        3.0326689549553351E-002   0.00000000    
 -0.44750591414015300       -2.9274757616179021E-003   0.00000000    
 -0.44410585720256118       -3.6789378320532723E-002   0.00000000    
 -0.43350396918629130       -7.0708973819366347E-002   0.00000000    
 -0.41569992539447381      -0.10409320862559046        0.00000000    
 -0.39082643617970403      -0.13631689382371381        0.00000000    
 -0.35915792062408547      -0.16673790672510277        0.00000000    
 -0.32111562741202065      -0.19471483576461263        0.00000000    
 -0.27726804560432561      -0.21962792662405292        0.00000000    
 -0.22832557630370603      -0.24090097881220476        0.00000000    
 -0.17512965620523077      -0.25802399065643589        0.00000000    
 -0.11863535343282765      -0.27057437831261993        0.00000000    
  -5.9888899236483932E-002 -0.27823552882726776        0.00000000    
  -7.2437440227930828E-010 -0.28081140485157835        0.00000000    
   5.9888897607790134E-002 -0.27823552830683734        0.00000000    
  0.11863535153216442      -0.27057437742701557        0.00000000    
  0.17512965428442631      -0.25802398970081664        0.00000000    
  0.22832557420108021      -0.24090097796521084        0.00000000    
  0.27726804309460251      -0.21962792594819947        0.00000000    
  0.32111562474691685      -0.19471483504088799        0.00000000    
  0.35915791790934787      -0.16673790580604506        0.00000000    
  0.39082643343026352      -0.13631689312787421        0.00000000    
  0.41569992247156895      -0.10409320820593738        0.00000000    
  0.43350396616774151       -7.0708973569060377E-002   0.00000000    
  0.44410585412785475       -3.6789378386076273E-002   0.00000000    
  0.44750591090735786       -2.9274759139693430E-003   0.00000000    
  0.44382563068241987        3.0326689079135213E-002   0.00000000    
  0.43329480176393953        6.2474090310920383E-002   0.00000000    
  0.41623698101678053        9.3070801332666611E-002   0.00000000    
  0.39305601388438866       0.12172959406706932        0.00000000    
  0.36422207042497395       0.14811887273830843        0.00000000    
  0.33025990872727240       0.17195988772692603        0.00000000    
  0.29173733611133196       0.19302276785164732        0.00000000    
  0.24925623356468485       0.21112163319484564        0.00000000    
  0.20344404884396686       0.22610980876783537        0.00000000    
  0.15494757452506916       0.23787475283001264        0.00000000    
  0.10442719874084508       0.24633399746807957        0.00000000    
   5.2552804927918709E-002  0.25143122454698291        0.00000000    
   0.0000000000000000       0.25313389168677852        0.00000000    
   0.0000000000000000       0.30651988864032048        0.00000000    
  -5.3879456964669246E-002  0.30447865613235686        0.00000000    
 -0.10708394904329013       0.29836661871580855        0.00000000    
 -0.15894016380841361       0.28821988909807011        0.00000000    
 -0.20877855809894516       0.27410070742203402        0.00000000    
 -0.25593573196781161       0.25610125858870642        0.00000000    
 -0.29975819202762510       0.23434786954819187        0.00000000    
 -0.33960660578548124       0.20900693577860530        0.00000000    
 -0.37486231978251716       0.18029086254941512        0.00000000    
 -0.40493452501528687       0.14846491451786628        0.00000000    
 -0.42927036873398033       0.11385345180591382        0.00000000    
 -0.44736568286112494        7.6845734096437496E-002   0.00000000    
 -0.45877885697985116        3.7900207172273652E-002   0.00000000    
 -0.46314494520227117       -2.4534678980838096E-003   0.00000000    
 -0.46019225951215237       -4.3614972726338547E-002   0.00000000    
 -0.44975825701056787       -8.4918114752525295E-002   0.00000000    
 -0.43180610793721391      -0.12563910627320715        0.00000000    
 -0.40643898496183223      -0.16501045494844241        0.00000000    
 -0.37391214785861165      -0.20223854566421912        0.00000000    
 -0.33464077262983005      -0.23652671343443313        0.00000000    
 -0.28920233062416656      -0.26710092162359844        0.00000000    
 -0.23833298246713427      -0.29323865072470667        0.00000000    
 -0.18291623114369335      -0.31429784011600492        0.00000000    
 -0.12396505220590130      -0.32974486089559163        0.00000000    
  -6.2596307208497320E-002 -0.33917909603017948        0.00000000    
  -9.2558182592371992E-010 -0.34235189316728365        0.00000000    
   6.2596305315889597E-002 -0.33917909528835982        0.00000000    
  0.12396505025481161      -0.32974485990092461        0.00000000    
  0.18291622890432177      -0.31429783896102509        0.00000000    
  0.23833298003966161      -0.29323864970715130        0.00000000    
  0.28920232818755864      -0.26710092070207375        0.00000000    
  0.33464076981203095      -0.23652671241980816        0.00000000    
  0.37391214489933050      -0.20223854484494597        0.00000000    
  0.40643898195869299      -0.16501045407425677        0.00000000    
  0.43180610498185268      -0.12563910590621336        0.00000000    
  0.44975825410933384       -8.4918114408042214E-002   0.00000000    
  0.46019225631351890       -4.3614972532503196E-002   0.00000000    
  0.46314494195594469       -2.4534681040323130E-003   0.00000000    
  0.45877885377776156        3.7900206661571741E-002   0.00000000    
  0.44736567978573322        7.6845733514848150E-002   0.00000000    
  0.42927036591696077       0.11385345147716294        0.00000000    
  0.40493452248539574       0.14846491403336684        0.00000000    
  0.37486231729513259       0.18029086173027381        0.00000000    
  0.33960660384111852       0.20900693489456040        0.00000000    
  0.29975819020888439       0.23434786856909917        0.00000000    
  0.25593573017833499       0.25610125724288690        0.00000000    
  0.20877855669275033       0.27410070558260358        0.00000000    
  0.15894016286143256       0.28821988720195618        0.00000000    
  0.10708394846359530       0.29836661660296016        0.00000000    
   5.3879456699094941E-002  0.30447865450791400        0.00000000    
   0.0000000000000000       0.30651988696853494        0.00000000    
   0.0000000000000000       0.36131811471153535        0.00000000    
  -5.5379762340539575E-002  0.35894075164214417        0.00000000    
 -0.11009069236788495       0.35182104748487358        0.00000000    
 -0.16346441840072556       0.33999650309481572        0.00000000    
 -0.21483363152763421       0.32353280250526389        0.00000000    
 -0.26353368613122469       0.30252749323729461        0.00000000    
 -0.30890462615361930       0.27711613574400912        0.00000000    
 -0.35029524124492828       0.24747879860727795        0.00000000    
 -0.38706782170333048       0.21384839368107911        0.00000000    
 -0.41860595429715586       0.17651881997022534        0.00000000    
 -0.44432320253033886       0.13585373624709204        0.00000000    
 -0.46367558832404071        9.2294246642828898E-002   0.00000000    
 -0.47617490187709460        4.6365278441848568E-002   0.00000000    
 -0.48140587656025607       -1.3203810760137867E-003   0.00000000    
 -0.47904363279112366       -5.0061894800933149E-002   0.00000000    
 -0.46887380817982183       -9.9073926569796619E-002   0.00000000    
 -0.45081161808158071      -0.14749654138188717        0.00000000    
 -0.42492082720298208      -0.19440984239609080        0.00000000    
 -0.39142948301184710      -0.23885624911593858        0.00000000    
 -0.35074150153994893      -0.27986727712783377        0.00000000    
 -0.30344246901193372      -0.31649674366704011        0.00000000    
 -0.25029726649778822      -0.34785629121692574        0.00000000    
 -0.19224006331782648      -0.37315306654075631        0.00000000    
 -0.13035412521025408      -0.39172566435357048        0.00000000    
  -6.5844142684854320E-002 -0.40307593322087631        0.00000000    
  -1.1929678915894790E-009 -0.40689441702328255        0.00000000    
   6.5844140359227005E-002 -0.40307593249792129        0.00000000    
  0.13035412280544145      -0.39172566320237140        0.00000000    
  0.19224006085435003      -0.37315306519536290        0.00000000    
  0.25029726381565670      -0.34785628998302837        0.00000000    
  0.30344246596883284      -0.31649674259175237        0.00000000    
  0.35074149851267283      -0.27986727590160537        0.00000000    
  0.39142947979560444      -0.23885624817782036        0.00000000    
  0.42492082395157116      -0.19440984156172353        0.00000000    
  0.45081161483227933      -0.14749654102496221        0.00000000    
  0.46887380487483860       -9.9073926213689836E-002   0.00000000    
  0.47904362973322540       -5.0061894568407019E-002   0.00000000    
  0.48140587344014918       -1.3203812107513556E-003   0.00000000    
  0.47617489872540913        4.6365277847277460E-002   0.00000000    
  0.46367558523330465        9.2294245957461510E-002   0.00000000    
  0.44432319966280071       0.13585373554054936        0.00000000    
  0.41860595167037706       0.17651881933563027        0.00000000    
  0.38706781943378415       0.21384839261229427        0.00000000    
  0.35029523899918719       0.24747879740604939        0.00000000    
  0.30890462425855103       0.27711613460580520        0.00000000    
  0.26353368450589792       0.30252749175158061        0.00000000    
  0.21483363000670655       0.32353280031804699        0.00000000    
  0.16346441712286333       0.33999650084420979        0.00000000    
  0.11009069146412045       0.35182104498513334        0.00000000    
   5.5379761841984766E-002  0.35894074968526318        0.00000000    
   0.0000000000000000       0.36131811260805885        0.00000000    
   0.0000000000000000       0.41768287515545754        0.00000000    
  -5.7016893335010213E-002  0.41497368791304695        0.00000000    
 -0.11337484209762538       0.40685803093377076        0.00000000    
 -0.16841379532107340       0.39337323961403931        0.00000000    
 -0.22147200530739031       0.37458452948593185        0.00000000    
 -0.27188573957453699       0.35059059508440293        0.00000000    
 -0.31899059963999760       0.32152987341074235        0.00000000    
 -0.36212347110521681       0.28758958629540382        0.00000000    
 -0.40062729542927999       0.24901504885455053        0.00000000    
 -0.43385681121279029       0.20612085044985473        0.00000000    
 -0.46118835513924467       0.15930153432295885        0.00000000    
 -0.48203087504423842       0.10904238971545782        0.00000000    
 -0.49584187401148633        5.5928482337863072E-002   0.00000000    
 -0.50214446444344074        6.5101354828809893E-004   0.00000000    
 -0.50054915861489191       -5.5989806688299365E-002   0.00000000    
 -0.49077592311256574      -0.11308804354249417        0.00000000    