 <VTKFile type="UnstructuredGrid" version="0.1" byte_order="BigEndian">
 <UnstructuredGrid>
 <Piece NumberOfPoints="        2601 " NumberOfCells="        2500 ">
 <PointData Scalars="scalars">
 <DataArray type="Float32" NumberOfComponents="3" Name="Velocity" Format="ascii">
   0.0000000000000000        0.0000000000000000        0.00000000    
 -0.10735379746017264        0.0000000000000000        0.00000000    
 -0.21389074171947337        0.0000000000000000        0.00000000    
 -0.31896710936209605        0.0000000000000000        0.00000000    
 -0.42151888606981680        0.0000000000000000        0.00000000    
 -0.52099491896223360        0.0000000000000000        0.00000000    
 -0.61601667415120476        0.0000000000000000        0.00000000    
 -0.70602803735947139        0.0000000000000000        0.00000000    
 -0.78929277078260474        0.0000000000000000        0.00000000    
 -0.86512106680385203        0.0000000000000000        0.00000000    
 -0.93144594176826734        0.0000000000000000        0.00000000    
 -0.98728162617962256        0.0000000000000000        0.00000000    
  -1.0304127676849284        0.0000000000000000        0.00000000    
  -1.0594031890694595        0.0000000000000000        0.00000000    
  -1.0723345286110872        0.0000000000000000        0.00000000    
  -1.0672881885029295        0.0000000000000000        0.00000000    
  -1.0433843721329126        0.0000000000000000        0.00000000    
 -0.99846371891458952        0.0000000000000000        0.00000000    
 -0.93351189505187449        0.0000000000000000        0.00000000    
 -0.84669620242371668        0.0000000000000000        0.00000000    
 -0.74127978490792934        0.0000000000000000        0.00000000    
 -0.61649736477816441        0.0000000000000000        0.00000000    
 -0.47742484239601191        0.0000000000000000        0.00000000    
 -0.32500794201345901        0.0000000000000000        0.00000000    
 -0.16487056914383316        0.0000000000000000        0.00000000    
   2.1537020509598916E-005   0.0000000000000000        0.00000000    
  0.16491302106460157        0.0000000000000000        0.00000000    
  0.32505008125919871        0.0000000000000000        0.00000000    
  0.47746552962284211        0.0000000000000000        0.00000000    
  0.61653698466727525        0.0000000000000000        0.00000000    
  0.74131745914283897        0.0000000000000000        0.00000000    
  0.84673239179256798        0.0000000000000000        0.00000000    
  0.93354601899029099        0.0000000000000000        0.00000000    
  0.99849623854209457        0.0000000000000000        0.00000000    
   1.0434149400679091        0.0000000000000000        0.00000000    
   1.0673171702717708        0.0000000000000000        0.00000000    
   1.0723617121023961        0.0000000000000000        0.00000000    
   1.0594287946330148        0.0000000000000000        0.00000000    
   1.0304366470368986        0.0000000000000000        0.00000000    
  0.98730386527442859        0.0000000000000000        0.00000000    
  0.93146641994467683        0.0000000000000000        0.00000000    
  0.86513977941586095        0.0000000000000000        0.00000000    
  0.78930961840391700        0.0000000000000000        0.00000000    
  0.70604297085259160        0.0000000000000000        0.00000000    
  0.61602961554138613        0.0000000000000000        0.00000000    
  0.52100580869237489        0.0000000000000000        0.00000000    
  0.42152766868023089        0.0000000000000000        0.00000000    
  0.31897373700245235        0.0000000000000000        0.00000000    
  0.21389518105641253        0.0000000000000000        0.00000000    
  0.10735602253986483        0.0000000000000000        0.00000000    
   0.0000000000000000        0.0000000000000000        0.00000000    
   0.0000000000000000       0.10736298064210539        0.00000000    
 -0.10701425290844639       0.10700654997917843        0.00000000    
 -0.21331419911943197       0.10583182045711768        0.00000000    
 -0.31797476396418084       0.10390659145167747        0.00000000    
 -0.42041757293470344       0.10108947278363516        0.00000000    
 -0.51943537234288428        9.7405836975669749E-002   0.00000000    
 -0.61450147149674850        9.2683493372625256E-002   0.00000000    
 -0.70406561138314205        8.6893484059254469E-002   0.00000000    
 -0.78754512587744896        7.9852236142021013E-002   0.00000000    
 -0.86302526750000741        7.1457671530470931E-002   0.00000000    
 -0.92972273318159859        6.1566136493309380E-002   0.00000000    
 -0.98543995805277618        4.9988237319858818E-002   0.00000000    
  -1.0290203082628244        3.6724715717936299E-002   0.00000000    
  -1.0582738992772511        2.1520754595596502E-002   0.00000000    
  -1.0715408665876400        4.6790065163193287E-003   0.00000000    
  -1.0672422933756143       -1.4022469439232734E-002   0.00000000    
  -1.0432780507341872       -3.3844143063573161E-002   0.00000000    
 -0.99954838817501412       -5.4804730298230374E-002   0.00000000    
 -0.93391109570892794       -7.5782947416589780E-002   0.00000000    
 -0.84849908671194085       -9.6443319552325601E-002   0.00000000    
 -0.74182651985590564      -0.11564423348734966        0.00000000    
 -0.61829199022267978      -0.13267128829195182        0.00000000    
 -0.47782038945085975      -0.14687140934201898        0.00000000    
 -0.32610027296973637      -0.15726418425615124        0.00000000    
 -0.16500472552966719      -0.16396731409747331        0.00000000    
   2.1595102499684690E-005 -0.16594969153954287        0.00000000    
  0.16504806037557343      -0.16396683661812186        0.00000000    
  0.32614251228946006      -0.15726325353450885        0.00000000    
  0.47786187001374536      -0.14687012928812485        0.00000000    
  0.61833167782975340      -0.13266970805274791        0.00000000    
  0.74186484663141028      -0.11564250724122561        0.00000000    
  0.84853532551653377       -9.6441472962131000E-002   0.00000000    
  0.93394572804682641       -7.5781122110340285E-002   0.00000000    
  0.99958096902607929       -5.4802899807603542E-002   0.00000000    
   1.0433090082081502       -3.3842398485507692E-002   0.00000000    
   1.0672713667385951       -1.4020743741232428E-002   0.00000000    
   1.0715683500877773        4.6806689575677966E-003   0.00000000    
   1.0582996240992482        2.1522428758997830E-002   0.00000000    
   1.0290444182180534        3.6726382631590157E-002   0.00000000    
  0.98546232385405308        4.9989954815940013E-002   0.00000000    
  0.92974338497896447        6.1567893918108900E-002   0.00000000    
  0.86304409764865353        7.1459501317310076E-002   0.00000000    
  0.78756209920163756        7.9854128168819344E-002   0.00000000    
  0.70408064082388122        8.6895450042544925E-002   0.00000000    
  0.61451449782532053        9.2685522602863155E-002   0.00000000    
  0.51944633080179148        9.7407927273537531E-002   0.00000000    
  0.42042640788076840       0.10109161311672171        0.00000000    
  0.31798143224149239       0.10390877275577642        0.00000000    
  0.21331866315903925       0.10583403169250387        0.00000000    
  0.10701649149697974       0.10700877845047177        0.00000000    
   0.0000000000000000       0.10736521583739329        0.00000000    
   0.0000000000000000       0.21413846211656890        0.00000000    
 -0.10608871683799193       0.21333545690127784        0.00000000    
 -0.21138528290012482       0.21110084420274927        0.00000000    
 -0.31527342476198750       0.20718769220523622        0.00000000    
 -0.41671491552204482       0.20169408878141165        0.00000000    
 -0.51519822089072664       0.19430374156307598        0.00000000    
 -0.60936882678731830       0.18502370833997298        0.00000000    
 -0.69873689670739270       0.17348689156871760        0.00000000    
 -0.78157515265461963       0.15957800988213033        0.00000000    
 -0.85730203911897551       0.14294033422911898        0.00000000    
 -0.92381447971789299       0.12329478597302158        0.00000000    
 -0.98027767960892020       0.10044141545503395        0.00000000    
  -1.0243481211783703        7.3923729139485625E-002   0.00000000    
  -1.0547413414257263        4.3969948680454368E-002   0.00000000    
  -1.0692870208792282        1.0043851746838989E-002   0.00000000    
  -1.0661233663033973       -2.6848153721731202E-002   0.00000000    
  -1.0440631438504471       -6.7041539353640711E-002   0.00000000    
  -1.0008159903350233      -0.10858276934429734        0.00000000    
 -0.93722764319424356      -0.15122917170629474        0.00000000    
 -0.85114604896713442      -0.19248932558842258        0.00000000    
 -0.74609129146130271      -0.23132418315267400        0.00000000    
 -0.62088421382449543      -0.26573157985353257        0.00000000    
 -0.48119765484409716      -0.29396791485773810        0.00000000    
 -0.32759448592128887      -0.31548960310392909        0.00000000    
 -0.16626093792385821      -0.32816963152341150        0.00000000    
   2.2558369736314783E-005 -0.33305583242776265        0.00000000    
  0.16630538297626410      -0.32816862699813404        0.00000000    
  0.32763853819592226      -0.31548771112423524        0.00000000    
  0.48124009807479906      -0.29396522826156141        0.00000000    
  0.62092543135915901      -0.26572838750497690        0.00000000    
  0.74613037896213341      -0.23132057815113657        0.00000000    
  0.85118349630690482      -0.19248562962214449        0.00000000    
  0.93726288701088512      -0.15122538578714573        0.00000000    
   1.0008495207601784      -0.10857913458899260        0.00000000    
   1.0440946461634022       -6.7037947551984001E-002   0.00000000    
   1.0661532123480451       -2.6844734869025728E-002   0.00000000    
   1.0693150237734734        1.0047254045423570E-002   0.00000000    
   1.0547677078684343        4.3973278114994303E-002   0.00000000    
   1.0243727175893322        7.3927125679168551E-002   0.00000000    
  0.98030057076690769       0.10044485273064889        0.00000000    
  0.92383555538254847       0.12329835311407639        0.00000000    
  0.85732127923558288       0.14294401149499275        0.00000000    
  0.78159246627390899       0.15958183775013843        0.00000000    
  0.69875222615177690       0.17349084976759746        0.00000000    
  0.60938210196854836       0.18502780272835861        0.00000000    
  0.51520938063943689       0.19430795000337719        0.00000000    
  0.41672391058791963       0.20169839916612392        0.00000000    
  0.31528020759156927       0.20719208236112543        0.00000000    
  0.21138982481698546       0.21110529173513232        0.00000000    
  0.10609099254552010       0.21333994073433590        0.00000000    
   0.0000000000000000       0.21414295624450680        0.00000000    
   0.0000000000000000       0.31954046928405833        0.00000000    
 -0.10447187850174676       0.31849540242092261        0.00000000    
 -0.20827750296228714       0.31504444624020589        0.00000000    
 -0.31054091166178527       0.30939699728610670        0.00000000    
 -0.41074362191696084       0.30113034032858210        0.00000000    
 -0.50773013106926768       0.29033865918281770        0.00000000    
 -0.60106937240035607       0.27649999100585410        0.00000000    
 -0.68925153113754856       0.25956218913544454        0.00000000    
 -0.77185838506182547       0.23894917152104134        0.00000000    
 -0.84696422110508585       0.21440324238872974        0.00000000    
 -0.91404668007154977       0.18542812179042320        0.00000000    
 -0.97076639038159440       0.15149233157988293        0.00000000    
  -1.0163016503282427       0.11247985282961941        0.00000000    
  -1.0480862100329127        6.7592939864863671E-002   0.00000000    
  -1.0647322782386215        1.7613939318911646E-002   0.00000000    
  -1.0640390057046867       -3.8273841431984895E-002   0.00000000    
  -1.0438834293440267       -9.7830327379292786E-002   0.00000000    
  -1.0035930884249096      -0.16133015745049112        0.00000000    
 -0.94056915184430190      -0.22509275256796135        0.00000000    
 -0.85700317643613411      -0.28827200465227343        0.00000000    
 -0.75062415290676754      -0.34697397823050202        0.00000000    
 -0.62681574038382137      -0.39909597264335572        0.00000000    
 -0.48462492150951914      -0.44247959949577048        0.00000000    
 -0.33111595377638325      -0.47408875796346533        0.00000000    
 -0.16747202620360921      -0.49454665597526015        0.00000000    
   2.3646691280220173E-005 -0.50045668209263439        0.00000000    
  0.16751942636608755      -0.49454508654257634        0.00000000    
  0.33116202712377774      -0.47408571129877342        0.00000000    
  0.48466996687561964      -0.44247543055933430        0.00000000    
  0.62685861517796226      -0.39909086636770197        0.00000000    
  0.75066532588899226      -0.34696845531054998        0.00000000    
  0.85704192065993023      -0.28826615768574726        0.00000000    
  0.94060601946695455      -0.22508703752532330        0.00000000    
   1.0036276954941530      -0.16132447787479173        0.00000000    
   1.0439162421651842       -9.7824958038576576E-002   0.00000000    
   1.0640698266937041       -3.8268552019072741E-002   0.00000000    
   1.0647613874522535        1.7619025981986232E-002   0.00000000    
   1.0481134771414875        6.7598063490183380E-002   0.00000000    
   1.0163271778388703       0.11248496480692199        0.00000000    
  0.97079007306602239       0.15149760349561678        0.00000000    
  0.91406850889103730       0.18543352364819449        0.00000000    
  0.84698410657511813       0.21440886383387353        0.00000000    
  0.77187626970437795       0.23895498253304479        0.00000000    
  0.68926734625333930       0.25956821789042200        0.00000000    
  0.60108305108461524       0.27650620553123523        0.00000000    
  0.50774162288404801       0.29034504978651010        0.00000000    
  0.41075287101892682       0.30113687594392458        0.00000000    
  0.31054788621365570       0.30940364899611983        0.00000000    
  0.20828216706912886       0.31505118357456835        0.00000000    
  0.10447421676125428       0.31850218850701895        0.00000000    
   0.0000000000000000       0.31954727512434122        0.00000000    
   0.0000000000000000       0.42315810891854044        0.00000000    
 -0.10224749959113227       0.42159843716129608        0.00000000    
 -0.20377007838772451       0.41727091081983375        0.00000000    
 -0.30402120913675995       0.40968636756804483        0.00000000    
 -0.40203790650927596       0.39906167242396434        0.00000000    
 -0.49740705575815064       0.38476427892591908        0.00000000    
 -0.58885043956173577       0.36685828870643861        0.00000000    
 -0.67604889118436029       0.34458579211048446        0.00000000    
 -0.75731773631256938       0.31780255627850518        0.00000000    
 -0.83237528386752924       0.28571452722802837        0.00000000    
 -0.89904350258039456       0.24786879840817069        0.00000000    
 -0.95695440092340855       0.20368354405864864        0.00000000    
  -1.0034183267727379       0.15228910365875234        0.00000000    
  -1.0377067840712662        9.3857979693705573E-002   0.00000000    
  -1.0568664572198436        2.7155910693789104E-002   0.00000000    
  -1.0593746877112384       -4.5999589095596018E-002   0.00000000    
  -1.0429416337725599      -0.12669194905141187        0.00000000    
  -1.0049942729783397      -0.21070498040903829        0.00000000    
 -0.94573554329094944      -0.29799934442314463        0.00000000    
 -0.86202377297520116      -0.38264191022632488        0.00000000    
 -0.75822203428625923      -0.46278359242152883        0.00000000    
 -0.63176990702128666      -0.53354565790227226        0.00000000    
 -0.49056372170291668      -0.59142568304971066        0.00000000    
 -0.33376678011589789      -0.63544734944383796        0.00000000    
 -0.16959978545217311      -0.66099775531640492        0.00000000    
   2.5725304849020182E-005 -0.67112553530599872        0.00000000    
  0.16965040031429263      -0.66099545691654626        0.00000000    
  0.33381672768005677      -0.63544303763298648        0.00000000    
  0.49061153530945989      -0.59141961732118020        0.00000000    
  0.63181597416903723      -0.53353853138793028        0.00000000    
  0.75826537400954130      -0.46277566050470703        0.00000000    
  0.86206498209911908      -0.38263391289916382        0.00000000    
  0.94577412870538369      -0.29799127943151732        0.00000000    
   1.0050308234008654      -0.21069735523764554        0.00000000    
   1.0429759431919949      -0.12668449005638402        0.00000000    
   1.0594071371264548       -4.5992537501594023E-002   0.00000000    
   1.0568969378910980        2.7162915693805162E-002   0.00000000    
   1.0377354435065225        9.3864848321925515E-002   0.00000000    
   1.0034450749962713       0.15229612144139540        0.00000000    
  0.95697923496267256       0.20369066917811640        0.00000000    
  0.89906634372270000       0.24787619382259490        0.00000000    
  0.83239606778238895       0.28572215569190773        0.00000000    
  0.75733640087894216       0.31781048044616994        0.00000000    
  0.67606536143263118       0.34459397155307914        0.00000000    
  0.58886467173036361       0.36686672705376777        0.00000000    
  0.49741898573024490       0.38477293477204777        0.00000000    
  0.40204750564002817       0.39907051634939122        0.00000000    
  0.30402843301382543       0.40969536077010754        0.00000000    
  0.20377491101916625       0.41728000835114742        0.00000000    
  0.10224991825504674       0.42160760286364357        0.00000000    
   0.0000000000000000       0.42316729206433534        0.00000000    
   0.0000000000000000       0.52399137586851574        0.00000000    
  -9.9307292161873381E-002  0.52232119750402650        0.00000000    
 -0.19802633159892427       0.51679100391712940        0.00000000    
 -0.29537078969204650       0.50776309812031917        0.00000000    
 -0.39091052643569191       0.49454260978636139        0.00000000    
 -0.48359460520425124       0.47733780256916963        0.00000000    
 -0.57313395673288481       0.45526873167535326        0.00000000    
 -0.65811661917553288       0.42835769323341083        0.00000000    
 -0.73839073151821422       0.39557484021767647        0.00000000    
 -0.81205481275690838       0.35666509790976503        0.00000000    
 -0.87907012422141462       0.31060298056100311        0.00000000    
 -0.93689689484078686       0.25668825111973015        0.00000000    
 -0.98546904039898298       0.19432168441130149        0.00000000    
  -1.0215246286248756       0.12217065759803676        0.00000000    
  -1.0445200742654621        4.0999560395467857E-002   0.00000000    
  -1.0508278836071674       -5.1025994593005171E-002   0.00000000    
  -1.0386462486556065      -0.15027903242083743        0.00000000    
  -1.0056309366582512      -0.25807937562220501        0.00000000    
 -0.94838208049547978      -0.36713134458409336        0.00000000    
 -0.86889866127263704      -0.47670391600833090        0.00000000    
 -0.76315320524876296      -0.57826760029670687        0.00000000    
 -0.63912034199346712      -0.66854546633194034        0.00000000    
 -0.49369717530842372      -0.74305405364755028        0.00000000    
 -0.33775364576750655      -0.79655828212057311        0.00000000    
 -0.17042373370669020      -0.83138256188241466        0.00000000    
   2.7957009851777929E-005 -0.84081676463712196        0.00000000    
  0.17047965507963098      -0.83137943508767420        0.00000000    
  0.33780769944613614      -0.79655226371302357        0.00000000    
  0.49374956780096080      -0.74304589937168464        0.00000000    
  0.63916969337394358      -0.66853564079492045        0.00000000    
  0.76320009429059743      -0.57825717763944462        0.00000000    
  0.86894238761823461      -0.47669311612701126        0.00000000    
  0.94842338078835620      -0.36712103238480875        0.00000000    
   1.0056695841885959      -0.25806930990520038        0.00000000    
   1.0386827823550955      -0.15026965913826412        0.00000000    
   1.0508622406488910       -5.1016820625885029E-002   0.00000000    
   1.0445524676759377        4.1008375396458116E-002   0.00000000    
   1.0215550048097117       0.12217955468548225        0.00000000    
  0.98549739614681409       0.19433060538209740        0.00000000    
  0.93692317383042123       0.25669746399199150        0.00000000    
  0.87909424287840965       0.31061244145073469        0.00000000    
  0.81207672567691513       0.35667492386119504        0.00000000    
  0.73841034874096101       0.39558498194195507        0.00000000    
  0.65813391110189379       0.42836817473226507        0.00000000    
  0.57314884982548142       0.45527950487819852        0.00000000    
  0.48360708226499344       0.47734884178653059        0.00000000    
  0.39092053617300337       0.49455386850367178        0.00000000    
  0.29537832386818136       0.50777452734370732        0.00000000    
  0.19803136006386113       0.51680256238227085        0.00000000    
   9.9309811403390333E-002  0.52233282546182769        0.00000000    
   0.0000000000000000       0.52400303466261866        0.00000000    
   0.0000000000000000       0.62179591935019596        0.00000000    
  -9.5734557599660403E-002  0.61955967877944518        0.00000000    
 -0.19083605347991819       0.61337423277740932        0.00000000    
 -0.28483653586482527       0.60252598387302558        0.00000000    
 -0.37689192806197380       0.58737602657320909        0.00000000    
 -0.46668898339948378       0.56698669209713881        0.00000000    
 -0.55308815039655423       0.54155953196854223        0.00000000    
 -0.63595660862689740       0.50991918277113946        0.00000000    
 -0.71372591067891911       0.47205793289644249        0.00000000    
 -0.78649873425703876       0.42662007494036447        0.00000000    
 -0.85207762958607947       0.37324337335344226        0.00000000    
 -0.91083611307701584       0.31063427173184116        0.00000000    
 -0.95967258772042452       0.23778544068777563        0.00000000    
 -0.99906168776212489       0.15415274182110369        0.00000000    
  -1.0247618487180596        5.7714231250427635E-002   0.00000000    
  -1.0365155898749110       -4.9677971322558315E-002   0.00000000    
  -1.0295566569303201      -0.17076648539730285        0.00000000    
  -1.0014374068905036      -0.29872535105261844        0.00000000    
 -0.95017306279746339      -0.43499744318157191        0.00000000    
 -0.87090930796012300      -0.56758386857448950        0.00000000    
 -0.76952941412219134      -0.69451188334523040        0.00000000    
 -0.64066733769691908      -0.80519501027065832        0.00000000    
 -0.49790195852975971      -0.89459195077951348        0.00000000    
 -0.33710319281540119      -0.96176157565740605        0.00000000    
 -0.17144447761939502      -0.99916679576528267        0.00000000    
   3.1350166075976643E-005  -1.0149589492988020        0.00000000    
  0.17150602322388564      -0.99916252159688079        0.00000000    
  0.33716350135438689      -0.96175359986307540        0.00000000    
  0.49795907267540851      -0.89458089831186616        0.00000000    
  0.64072167045151429      -0.80518226042195229        0.00000000    
  0.76957986195810268      -0.69449803774333296        0.00000000    
  0.87095674184582794      -0.56757031499143029        0.00000000    
  0.95021717186693566      -0.43498413381624801        0.00000000    
   1.0014789788268263      -0.29871309260653284        0.00000000    
   1.0295957051574756      -0.17075466730512567        0.00000000    
   1.0365524497571501       -4.9666877163356216E-002   0.00000000    
   1.0247965387537734        5.7725259535648235E-002   0.00000000    
  0.99909419645823694       0.15416362418825594        0.00000000    
  0.95970289929393726       0.23779659393692565        0.00000000    
  0.91086410483841107       0.31064564889457491        0.00000000    
  0.85210328643350408       0.37325516519771595        0.00000000    
  0.78652193895274458       0.42663222782436894        0.00000000    
  0.71374665963652550       0.47207049912187810        0.00000000    
  0.63597481493267327       0.50993210771540853        0.00000000    
  0.55310381918525253       0.54157279807516612        0.00000000    
  0.46670205828445005       0.56700024834463636        0.00000000    
  0.37690241720216822       0.58738982132692330        0.00000000    
  0.28484440508024295       0.60253997254428404        0.00000000    
  0.19084130953790351       0.61338835066163899        0.00000000    
   9.5737184406589265E-002  0.61957388579095296        0.00000000    
   0.0000000000000000       0.62181014513735966        0.00000000    
   0.0000000000000000       0.71537392707567704        0.00000000    
  -9.1440312618155120E-002  0.71315765606189208        0.00000000    
 -0.18237135516681593       0.70580990836994673        0.00000000    
 -0.27212322261699062       0.69384377225190630        0.00000000    
 -0.36032961212939374       0.67632113299275032        0.00000000    
 -0.44609787470900147       0.65360801605779606        0.00000000    
 -0.52923487443514328       0.62447548539876330        0.00000000    
 -0.60850921678281733       0.58914713962288745        0.00000000    
 -0.68399083765032087       0.54608200605710844        0.00000000    
 -0.75391280185937026       0.49529189529625917        0.00000000    
 -0.81876274121458481       0.43500148991071519        0.00000000    
 -0.87591020402365583       0.36478320178437013        0.00000000    
 -0.92641641482120884       0.28298029196095981        0.00000000    
 -0.96626694492982046       0.18819861375237382        0.00000000    
 -0.99690356462308838        8.0006227788450887E-002   0.00000000    
  -1.0123430191923453       -4.4775688766225639E-002   0.00000000    
  -1.0127024695370530      -0.18226717270645812        0.00000000    
 -0.99137202957805803      -0.33667328293013954        0.00000000    
 -0.94444161606972099      -0.49524320273077266        0.00000000    
 -0.87190939184797711      -0.65913303178944493        0.00000000    
 -0.76656655377231631      -0.80968439816402049        0.00000000    
 -0.64236153226399295      -0.94308855050295937        0.00000000    
 -0.49185881900163958       -1.0499654601148039        0.00000000    
 -0.33569442632915492       -1.1233501905341643        0.00000000    
 -0.16769201267487391       -1.1712382747125163        0.00000000    
   3.4934213487551931E-005  -1.1820892132814966        0.00000000    
  0.16776167816073256       -1.1712326428744464        0.00000000    
  0.33576123518962209       -1.1233394787195337        0.00000000    
  0.49192278698086550       -1.0499511083921369        0.00000000    
  0.64242084228139962      -0.94307166055741065        0.00000000    
  0.76662207337622545      -0.80966701732643476        0.00000000    
  0.87196052521653244      -0.65911561325768353        0.00000000    
  0.94448951451404939      -0.49522719857393332        0.00000000    
  0.99141680241587848      -0.33665805653726621        0.00000000    
   1.0127446995918765      -0.18225325606973500        0.00000000    
   1.0123828581937566       -4.4762113754740401E-002   0.00000000    
  0.99694099505060074        8.0019353640559551E-002   0.00000000    
  0.96630202322653092       0.18821193202145536        0.00000000    
  0.92644894242561859       0.28299375712158764        0.00000000    
  0.87594021536003508       0.36479710311414348        0.00000000    
  0.81879007179955465       0.43501577325171475        0.00000000    
  0.75393749121250520       0.49530665006543845        0.00000000    
  0.68401277966279628       0.54609717347445774        0.00000000    
  0.60852845307250403       0.58916271174819579        0.00000000    
  0.52925134387610639       0.62449140868845643        0.00000000    
  0.44611161363200913       0.65362423954223681        0.00000000    
  0.36034058724207901       0.67633761006291626        0.00000000    
  0.27213146089862306       0.69386043536086295        0.00000000    
  0.18237683931561377       0.70582671910504702        0.00000000    
   9.1443057282221726E-002  0.71317453895662963        0.00000000    
   0.0000000000000000       0.71539084844891365        0.00000000    
   0.0000000000000000       0.80465239871109606        0.00000000    
  -8.6513071709598502E-002  0.80183362349320553        0.00000000    
 -0.17248846174882623       0.79404142813403833        0.00000000    
 -0.25750485109898397       0.78038156320290819        0.00000000    
 -0.34087353691452182       0.76135947089036593        0.00000000    
 -0.42230587192318036       0.73577132784546073        0.00000000    
 -0.50087427884904989       0.70401863170054146        0.00000000    
 -0.57650658949896272       0.66451169552566813        0.00000000    
 -0.64787125485477071       0.61756478463877029        0.00000000    
 -0.71529878462780139       0.56115965581078020        0.00000000    
 -0.77675392981924241       0.49543985774800031        0.00000000    
 -0.83329852743963373       0.41803793399130007        0.00000000    
 -0.88164363041371629       0.32857791124322039        0.00000000    
 -0.92400596508894794       0.22481489165201959        0.00000000    
 -0.95484237744852751       0.10486401127218123        0.00000000    
 -0.97742214682278983       -3.1613225282935503E-002   0.00000000    