 <VTKFile type="UnstructuredGrid" version="0.1" byte_order="BigEndian">
 <UnstructuredGrid>
 <Piece NumberOfPoints="        2601 " NumberOfCells="        2500 ">
 <PointData Scalars="scalars">
 <DataArray type="Float32" NumberOfComponents="3" Name="Velocity" Format="ascii">
   0.0000000000000000        0.0000000000000000        0.00000000    
  -8.6359473285412186E-002   0.0000000000000000        0.00000000    
 -0.17181203016008831        0.0000000000000000        0.00000000    
 -0.25553698879341885        0.0000000000000000        0.00000000    
 -0.33651389613458288        0.0000000000000000        0.00000000    
 -0.41396698550375843        0.0000000000000000        0.00000000    
 -0.48675842907121497        0.0000000000000000        0.00000000    
 -0.55410920472355241        0.0000000000000000        0.00000000    
 -0.61479821620542729        0.0000000000000000        0.00000000    
 -0.66799754243346188        0.0000000000000000        0.00000000    
 -0.71249384308055264        0.0000000000000000        0.00000000    
 -0.74738363228791049        0.0000000000000000        0.00000000    
 -0.77162576583034503        0.0000000000000000        0.00000000    
 -0.78425884282614478        0.0000000000000000        0.00000000    
 -0.78464947337186108        0.0000000000000000        0.00000000    
 -0.77186771489972950        0.0000000000000000        0.00000000    
 -0.74595193100042367        0.0000000000000000        0.00000000    
 -0.70617649375824310        0.0000000000000000        0.00000000    
 -0.65345248355293217        0.0000000000000000        0.00000000    
 -0.58749150299008723        0.0000000000000000        0.00000000    
 -0.51010435455587133        0.0000000000000000        0.00000000    
 -0.42167043739653326        0.0000000000000000        0.00000000    
 -0.32468938780900902        0.0000000000000000        0.00000000    
 -0.22035412999802956        0.0000000000000000        0.00000000    
 -0.11144364872066180        0.0000000000000000        0.00000000    
   4.8717678215500661E-005   0.0000000000000000        0.00000000    
  0.11154059049716812        0.0000000000000000        0.00000000    
  0.22045020498152598        0.0000000000000000        0.00000000    
  0.32478364971982060        0.0000000000000000        0.00000000    
  0.42176257006859008        0.0000000000000000        0.00000000    
  0.51019352446267741        0.0000000000000000        0.00000000    
  0.58757749276600801        0.0000000000000000        0.00000000    
  0.65353461869821239        0.0000000000000000        0.00000000    
  0.70625467163580913        0.0000000000000000        0.00000000    
  0.74602565003631705        0.0000000000000000        0.00000000    
  0.77193697949401863        0.0000000000000000        0.00000000    
  0.78471394261963101        0.0000000000000000        0.00000000    
  0.78431860349469629        0.0000000000000000        0.00000000    
  0.77168060934663207        0.0000000000000000        0.00000000    
  0.74743369692893147        0.0000000000000000        0.00000000    
  0.71253901658321683        0.0000000000000000        0.00000000    
  0.66803798577148066        0.0000000000000000        0.00000000    
  0.61483388185582710        0.0000000000000000        0.00000000    
  0.55414025017019020        0.0000000000000000        0.00000000    
  0.48678484447185194        0.0000000000000000        0.00000000    
  0.41398890559696211        0.0000000000000000        0.00000000    
  0.33653132753505299        0.0000000000000000        0.00000000    
  0.25555002905593532        0.0000000000000000        0.00000000    
  0.17182068853478438        0.0000000000000000        0.00000000    
   8.6363800476781660E-002   0.0000000000000000        0.00000000    
   0.0000000000000000        0.0000000000000000        0.00000000    
   0.0000000000000000        8.6540816163242912E-002   0.00000000    
  -8.6293669604816589E-002   8.6113796755933350E-002   0.00000000    
 -0.17173406961987514        8.4780629961600892E-002   0.00000000    
 -0.25536380420019650        8.2575532692994030E-002   0.00000000    
 -0.33639831322935071        7.9437352518061582E-002   0.00000000    
 -0.41375835874237732        7.5377250435469154E-002   0.00000000    
 -0.48668235875500576        7.0339660227737980E-002   0.00000000    
 -0.55398079119402099        6.4311013805576134E-002   0.00000000    
 -0.61486597594107362        5.7264647011968844E-002   0.00000000    
 -0.66809626481516360        4.9166431187747800E-002   0.00000000    
 -0.71281704652661171        4.0052112590919300E-002   0.00000000    
 -0.74785953709807951        2.9881626807240522E-002   0.00000000    
 -0.77229030121416253        1.8792728535833740E-002   0.00000000    
 -0.78521714282204869        6.7686457092607363E-003   0.00000000    
 -0.78567374585155392       -5.9199585856408001E-003   0.00000000    
 -0.77330927936226102       -1.9224815009214850E-002   0.00000000    
 -0.74725317627466892       -3.2745622729445811E-002   0.00000000    
 -0.70795345583418257       -4.6328087881123019E-002   0.00000000    
 -0.65484535853672687       -5.9502574533563314E-002   0.00000000    
 -0.58931245162591317       -7.1989869842994589E-002   0.00000000    
 -0.51134393262160782       -8.3364356178656354E-002   0.00000000    
 -0.42316970939556703       -9.3242344400578228E-002   0.00000000    
 -0.32554142009874099      -0.10136555589819259        0.00000000    
 -0.22120094397458828      -0.10730874050291903        0.00000000    
 -0.11174652379122522      -0.11105472406595465        0.00000000    
   4.8558515952934970E-005 -0.11223128811398728        0.00000000    
  0.11184344923117648      -0.11105403889394994        0.00000000    
  0.22129669611671515      -0.10730738558380785        0.00000000    
  0.32563564639228515      -0.10136357189550954        0.00000000    
  0.42326150912294197       -9.3239772597662252E-002   0.00000000    
  0.51143303530382545       -8.3361268170256728E-002   0.00000000    
  0.58939809848346569       -7.1986321894800240E-002   0.00000000    
  0.65492739108962139       -5.9498653545206288E-002   0.00000000    
  0.70803128821887396       -4.6323851432189374E-002   0.00000000    
  0.74732676451535318       -3.2741156191144177E-002   0.00000000    
  0.77337820803624668       -1.9220167537555920E-002   0.00000000    
  0.78573806720008066       -5.9152033835088401E-003   0.00000000    
  0.78527658983843918        6.7734734203816500E-003   0.00000000    
  0.77234499333170825        1.8797572877847519E-002   0.00000000    
  0.74790932091854945        2.9886469639661330E-002   0.00000000    
  0.71286207773280941        4.0056913513322599E-002   0.00000000    
  0.66813646992910114        4.9171186524499151E-002   0.00000000    
  0.61490151828081185        5.7269332139363402E-002   0.00000000    
  0.55401164664151092        6.4315635776559715E-002   0.00000000    
  0.48670867663668294        7.0344205870994131E-002   0.00000000    
  0.41378014074942571        7.5381735976729702E-002   0.00000000    
  0.33641567753762625        7.9441773370802299E-002   0.00000000    
  0.25537676083911265        8.2579910650080232E-002   0.00000000    
  0.17174269373000131        8.4784966423661318E-002   0.00000000    
   8.6297968775013362E-002   8.6118116419673985E-002   0.00000000    
   0.0000000000000000        8.6545122863621413E-002   0.00000000    
   0.0000000000000000       0.17299267992637690        0.00000000    
  -8.6138202993825255E-002  0.17209521394066474        0.00000000    
 -0.17138983804867811       0.16949265600935273        0.00000000    
 -0.25496196333396404       0.16506677425568606        0.00000000    
 -0.33584562964521664       0.15886569348119170        0.00000000    
 -0.41330015108115914       0.15076488277990263        0.00000000    
 -0.48618619911952327       0.14076348136308856        0.00000000    
 -0.55376632471966436       0.12876715492273796        0.00000000    
 -0.61479789055737089       0.11472665939963365        0.00000000    
 -0.66849630564461127        9.8634524115726568E-002   0.00000000    
 -0.71359896259356848        8.0408858037653713E-002   0.00000000    
 -0.74923590878984359        6.0205715990274689E-002   0.00000000    
 -0.77428721682426116        3.7952107414397293E-002   0.00000000    
 -0.78779722290272514        1.4047508385256183E-002   0.00000000    
 -0.78903874383995931       -1.1499305620560344E-002   0.00000000    
 -0.77704249423482485       -3.8004794498562568E-002   0.00000000    
 -0.75177520482747062       -6.5287648486988689E-002   0.00000000    
 -0.71242244314401371       -9.2437159010649042E-002   0.00000000    
 -0.65989402267870501      -0.11902863821003176        0.00000000    
 -0.59377999139457982      -0.14410936316246217        0.00000000    
 -0.51598661575534022      -0.16700537832329948        0.00000000    
 -0.42677386271103346      -0.18698692070829742        0.00000000    
 -0.32880841176516962      -0.20321334353771611        0.00000000    
 -0.22320846938322791      -0.21539999593256950        0.00000000    
 -0.11292261686663678      -0.22270236672030977        0.00000000    
   4.8385279122464757E-005 -0.22534835558944069        0.00000000    
  0.11301888345473889      -0.22270098598617566        0.00000000    
  0.22330385022337015      -0.21539727752942453        0.00000000    
  0.32890194359327990      -0.20320934815801192        0.00000000    
  0.42686522665672227      -0.18698176583304027        0.00000000    
  0.51607497017311865      -0.16699916681334337        0.00000000    
  0.59386512270164826      -0.14410225977931346        0.00000000    
  0.65997525843475768      -0.11902076279976978        0.00000000    
  0.71249969114239775       -9.2428689056290453E-002   0.00000000    
  0.75184797412035009       -6.5278692603101110E-002   0.00000000    
  0.77711080163872059       -3.7995514915074746E-002   0.00000000    
  0.78910226187746835       -1.1489785836645504E-002   0.00000000    
  0.78785605082596555        1.4057135962960637E-002   0.00000000    
  0.77434115889745692        3.7961792640704775E-002   0.00000000    
  0.74928511444217161        6.0215362658492158E-002   0.00000000    
  0.71364333063780783        8.0418445348787101E-002   0.00000000    
  0.66853600373754440        9.8643989109606686E-002   0.00000000    
  0.61483288000588654       0.11473600629082184        0.00000000    
  0.55379676798900346       0.12877634820375458        0.00000000    
  0.48621209123402426       0.14077254441937356        0.00000000    
  0.41332162994945271       0.15077380003145149        0.00000000    
  0.33586270532783546       0.15887450351057805        0.00000000    
  0.25497473449419472       0.16507547523040614        0.00000000    
  0.17139831614746365       0.16950129504654857        0.00000000    
   8.6142439803057330E-002  0.17210379726130912        0.00000000    
   0.0000000000000000       0.17300125895183768        0.00000000    
   0.0000000000000000       0.25915299351832732        0.00000000    
  -8.5821431922317157E-002  0.25789588214420439        0.00000000    
 -0.17083712648359611       0.25396066408274448        0.00000000    
 -0.25412209770265837       0.24745720898769191        0.00000000    
 -0.33495373536105733       0.23819190836884704        0.00000000    
 -0.41226488394785876       0.22620568284333209        0.00000000    
 -0.48537076836624193       0.21131595761691496        0.00000000    
 -0.55306220977070930       0.19348758844705558        0.00000000    
 -0.61463951685151674       0.17261644011500665        0.00000000    
 -0.66879325658043864       0.14859823808369571        0.00000000    
 -0.71475331254461549       0.12150919507014975        0.00000000    
 -0.75122151352040678        9.1211862402969829E-002   0.00000000    
 -0.77731503844416538        5.8092128215965447E-002   0.00000000    
 -0.79195836239960393        2.2062149728110318E-002   0.00000000    
 -0.79416163664780570       -1.6067821794183531E-002   0.00000000    
 -0.78338810900849265       -5.6204727990539063E-002   0.00000000    
 -0.75864087546115633       -9.7100912449494939E-002   0.00000000    
 -0.72027582459372075      -0.13834038462432691        0.00000000    
 -0.66750782260658525      -0.17842051393782657        0.00000000    
 -0.60181488256406801      -0.21652314007813511        0.00000000    
 -0.52292547799792799      -0.25127306443291797        0.00000000    
 -0.43335896339636626      -0.28149718711323102        0.00000000    
 -0.33364861854419664      -0.30637755884141088        0.00000000    
 -0.22691054173406003      -0.32457248711064568        0.00000000    
 -0.11465545252545933      -0.33606950508658656        0.00000000    
   4.7886722884390384E-005 -0.33965424692391172        0.00000000    
  0.11475102509713539      -0.33606741950799235        0.00000000    
  0.22700489158157761      -0.32456836507964565        0.00000000    
  0.33374138027091116      -0.30637152995609057        0.00000000    
  0.43344920961944733      -0.28148938235692872        0.00000000    
  0.52301293958466444      -0.25126370863873165        0.00000000    
  0.60189879603917307      -0.21651240975588440        0.00000000    
  0.66758804502021640      -0.17840867885281281        0.00000000    
  0.72035178332426497      -0.13832762290262987        0.00000000    
  0.75871255072403843       -9.7087486158120073E-002   0.00000000    
  0.78345511124223743       -5.6190783894787821E-002   0.00000000    
  0.79422404514731793       -1.6053583420007057E-002   0.00000000    
  0.79201593724988173        2.2076582480933839E-002   0.00000000    
  0.77736792185538728        5.8106585558359139E-002   0.00000000    
  0.75126957731567279        9.1226292994005725E-002   0.00000000    
  0.71479672922088722       0.12152348318781016        0.00000000    
  0.66883197209228262       0.14861237338902381        0.00000000    
  0.61467370602996796       0.17263035167494034        0.00000000    
  0.55309186171092051       0.19350130047910777        0.00000000    
  0.48539603987305935       0.21132943351286765        0.00000000    
  0.41228578478405997       0.22621897117449355        0.00000000    
  0.33497038810675428       0.23820499859733016        0.00000000    
  0.25413451753383359       0.24747016720274648        0.00000000    
  0.17084539057864734       0.25397349467973840        0.00000000    
   8.5825550570057155E-002  0.25790866064447354        0.00000000    
   0.0000000000000000       0.25916573282370786        0.00000000    
   0.0000000000000000       0.34499517244972122        0.00000000    
  -8.5364017093590511E-002  0.34324043781777142        0.00000000    
 -0.16990079819244891       0.33816986948585676        0.00000000    
 -0.25289723696367500       0.32953069853495243        0.00000000    
 -0.33337990307519011       0.31743400703116847        0.00000000    
 -0.41071020842418265       0.30160632165332824        0.00000000    
 -0.48374847178647784       0.28206074924708585        0.00000000    
 -0.55188249768334008       0.25856954545177446        0.00000000    
 -0.61381128124049122       0.23104185383404161        0.00000000    
 -0.66888926164567120       0.19940582288223804        0.00000000    
 -0.71570989201309232       0.16348357335175454        0.00000000    
 -0.75352473139857967       0.12352179923215238        0.00000000    
 -0.78096987017406860        7.9322127804575537E-002   0.00000000    
 -0.79713583888208228        3.1642713347557395E-002   0.00000000    
 -0.80098683561244899       -1.9592846296960727E-002   0.00000000    
 -0.79145890476614500       -7.2979896021172844E-002   0.00000000    
 -0.76826473689470542      -0.12826588258274019        0.00000000    
 -0.73032532430041575      -0.18347861671121513        0.00000000    
 -0.67852715725460977      -0.23784719244477021        0.00000000    
 -0.61206969553802015      -0.28924560656387927        0.00000000    
 -0.53317724879276041      -0.33633119510118853        0.00000000    
 -0.44170287798955998      -0.37747868891277914        0.00000000    
 -0.34088750656667571      -0.41092052242391680        0.00000000    
 -0.23156719586962740      -0.43608666086955417        0.00000000    
 -0.11726158749705430      -0.45111477987201942        0.00000000    
   4.7372136628574306E-005 -0.45662002222296860        0.00000000    
  0.11735579524374147      -0.45111195689282224        0.00000000    
  0.23166045909503188      -0.43608110899322317        0.00000000    
  0.34097880795928004      -0.41091237342995085        0.00000000    
  0.44179188884459342      -0.37746819822301780        0.00000000    
  0.53326310364840090      -0.33631858460393704        0.00000000    
  0.61215219536782495      -0.28923122780595589        0.00000000    
  0.67860563866186741      -0.23783129631024544        0.00000000    
  0.73039972781734575      -0.18346157446402442        0.00000000    
  0.76833460443960577      -0.12824791737567773        0.00000000    
  0.79152429409875302       -7.2961339597824068E-002   0.00000000    
  0.80104746161660667       -1.9573863185933037E-002   0.00000000    
  0.79719183866640408        3.1661861234670623E-002   0.00000000    
  0.78102108850250407        7.9341342909614393E-002   0.00000000    
  0.75357134589279917       0.12354089551295568        0.00000000    
  0.71575183461589287       0.16350251479223613        0.00000000    
  0.66892672096399575       0.19942448931602008        0.00000000    
  0.61384424143206728       0.23106025972798036        0.00000000    
  0.55191113433146022       0.25858762393398493        0.00000000    
  0.48377279607964629       0.28207855148365157        0.00000000    
  0.41073036621675835       0.30162382081762001        0.00000000    
  0.33339591371511546       0.31745128167218040        0.00000000    
  0.25290920416309887       0.32954774869507714        0.00000000    
  0.16990873855278305       0.33818679071555097        0.00000000    
   8.5367984089581378E-002  0.34325724449958628        0.00000000    
   0.0000000000000000       0.34501196921987232        0.00000000    
   0.0000000000000000       0.43014049823358252        0.00000000    
  -8.4661920164492324E-002  0.42812227382006429        0.00000000    
 -0.16860747939918364       0.42177159810510767        0.00000000    
 -0.25097547333876846       0.41129462658421273        0.00000000    
 -0.33115943176071877       0.39633792675690815        0.00000000    
 -0.40812145024194457       0.37699594832938826        0.00000000    
 -0.48132544726585214       0.35291460435127031        0.00000000    
 -0.54953414700657910       0.32405963634967588        0.00000000    
 -0.61223034656269426       0.29017796480792002        0.00000000    
 -0.66798198745454684       0.25110055054336067        0.00000000    
 -0.71621637950944927       0.20684508347983760        0.00000000    
 -0.75537757517352744       0.15713753766955790        0.00000000    
 -0.78473758852053166       0.10251275277739830        0.00000000    
 -0.80282133043455317        4.2703007971382427E-002   0.00000000    
 -0.80865356841237146       -2.0968699561797349E-002   0.00000000    
 -0.80125034636878545       -8.8533991757799885E-002   0.00000000    
 -0.77939623141720871      -0.15775886799511291        0.00000000    
 -0.74318576419736260      -0.22813431253537270        0.00000000    
 -0.69137153394743056      -0.29680269723518105        0.00000000    
 -0.62562466967153285      -0.36249323424500524        0.00000000    
 -0.54507387517623263      -0.42252561656717458        0.00000000    
 -0.45294118206835160      -0.47489014206377705        0.00000000    
 -0.34920571265608896      -0.51805872172323142        0.00000000    
 -0.23789733532873275      -0.54957596315836610        0.00000000    
 -0.12023320902803515      -0.56959402624847555        0.00000000    
   4.6510572195852732E-005 -0.57572826977303415        0.00000000    
  0.12032600907861857      -0.56959044564856642        0.00000000    
  0.23798880536438272      -0.54956889436640755        0.00000000    
  0.34929546069037193      -0.51804840580995182        0.00000000    
  0.45302822522642833      -0.47487682287898586        0.00000000    
  0.54515794821587771      -0.42250970844595237        0.00000000    
  0.62570500184462829      -0.36247505721768752        0.00000000    
  0.69144801889151108      -0.29678273371696418        0.00000000    
  0.74325786312212594      -0.22811287376088576        0.00000000    
  0.77946397848545856      -0.15773641148499090        0.00000000    
  0.80131340767073955       -8.8510762657271203E-002   0.00000000    
  0.80871207673455159       -2.0945072817680838E-002   0.00000000    
  0.80287510402086737        4.2726873183013846E-002   0.00000000    
  0.78478681317373833       0.10253658094913960        0.00000000    
  0.75542217102920017       0.15716125351751750        0.00000000    
  0.71625655002700517       0.20686850258506556        0.00000000    
  0.66801771427244439       0.25112366629880106        0.00000000    
  0.61226182602441126       0.29020066786560128        0.00000000    
  0.54956139341517385       0.32408197426711599        0.00000000    
  0.48134862957580832       0.35293652360874150        0.00000000    
  0.40814059437468175       0.37701753515307374        0.00000000    
  0.33117466791335726       0.39635916887386696        0.00000000    
  0.25098682528836253       0.41131563691449075        0.00000000    
  0.16861502860179012       0.42179238875334013        0.00000000    
   8.4665681004530730E-002  0.42814297281284713        0.00000000    
   0.0000000000000000       0.43016113053141014        0.00000000    
   0.0000000000000000       0.51459394303086092        0.00000000    
  -8.3726635925476994E-002  0.51205854874386769        0.00000000    
 -0.16671856913435568       0.50477397910045174        0.00000000    
 -0.24838303766857114       0.49232587103439479        0.00000000    
 -0.32780870558980540       0.47491747114892402        0.00000000    
 -0.40451326320382192       0.45208414153041926        0.00000000    
 -0.47737029996224090       0.42388860562072189        0.00000000    
 -0.54597181353354940       0.38989700760053947        0.00000000    
 -0.60894256903229116       0.35000870663646017        0.00000000    
 -0.66589125100707480       0.30397128769019549        0.00000000    
 -0.71519095251153630       0.25150959438535048        0.00000000    
 -0.75636383554142472       0.19280825768381635        0.00000000    
 -0.78762273664671967       0.12746209731905381        0.00000000    
 -0.80824497164934250        5.6460787977391839E-002   0.00000000    
 -0.81658671847277331       -2.0551349828370306E-002   0.00000000    
 -0.81152911924531523      -0.10141102028688728        0.00000000    
 -0.79220264467459578      -0.18606128976580433        0.00000000    
 -0.75711305134827456      -0.27113081428396252        0.00000000    
 -0.70700930797965666      -0.35572303571124403        0.00000000    
 -0.64035618271590988      -0.43597175361880314        0.00000000    
 -0.56002446985396703      -0.50992847645720962        0.00000000    
 -0.46501226047257449      -0.57463105768237088        0.00000000    
 -0.35982295250938573      -0.62724145944749288        0.00000000    
 -0.24459220369900977      -0.66693122811585792        0.00000000    
 -0.12404755501715775      -0.69044641449085165        0.00000000    
   4.5628526883155809E-005 -0.69924766306220232        0.00000000    
  0.12413821497789747      -0.69044201570426034        0.00000000    
  0.24468180993357960      -0.66692259376884777        0.00000000    
  0.35991038943395659      -0.62722881777757011        0.00000000    
  0.46509718420141716      -0.57461484618121650        0.00000000    
  0.56010597572441878      -0.50990907267474483        0.00000000    
  0.64043410272252976      -0.43594974552088872        0.00000000    
  0.70708300264610191      -0.35569883069324615        0.00000000    
  0.75718252624206517      -0.27110501121550840        0.00000000    
  0.79226750725962136      -0.18603423338283803        0.00000000    
  0.81158949877449504      -0.10138322223503272        0.00000000    
  0.81664240690195500       -2.0523047953991139E-002   0.00000000    
  0.80829616612461497        5.6489206750760683E-002   0.00000000    
  0.78766934883680417       0.12749050314939733        0.00000000    
  0.75640608708348289       0.19283638532110725        0.00000000    
  0.71522882663547804       0.25153740445970441        0.00000000    
  0.66592496618193553       0.30399861512773318        0.00000000    
  0.60897214517917442       0.35003558439856575        0.00000000    
  0.54599744469140687       0.38992334885826607        0.00000000    
  0.47739202079871890       0.42391449596039416        0.00000000    
  0.40453123030975557       0.45210954918228097        0.00000000    
  0.32782295292284330       0.47494252019324951        0.00000000    
  0.24839367511866173       0.49235056852594045        0.00000000    
  0.16672562026882964       0.50479847165262315        0.00000000    
   8.3730157059264690E-002  0.51208286419861437        0.00000000    
   0.0000000000000000       0.51461824084318653        0.00000000    
   0.0000000000000000       0.59774107280754241        0.00000000    
  -8.2427225711223434E-002  0.59506638359060504        0.00000000    
 -0.16425640429882074       0.58658835877185700        0.00000000    
 -0.24471849580150981       0.57263915382971387        0.00000000    
 -0.32335779577344598       0.55267025788248358        0.00000000    
 -0.39919224910253326       0.52687146677691565        0.00000000    
 -0.47188718503734445       0.49465435278738956        0.00000000    
 -0.54019238770544498       0.45603907545287464        0.00000000    
 -0.60386492245815604       0.41051102599620648        0.00000000    
 -0.66132898317521549       0.35788280663842176        0.00000000    
 -0.71236438135426616       0.29793426846956661        0.00000000    
 -0.75504925106973397       0.23024242784687018        0.00000000    
 -0.78902870132429981       0.15526736741553379        0.00000000    
 -0.81216085871726607        7.2410996698511393E-002   0.00000000    
 -0.82368983106260674       -1.6629755694847898E-002   0.00000000    
 -0.82174377849920677      -0.11233518574356505        0.00000000    
 -0.80492107959277248      -0.21128521989543766        0.00000000    
 -0.77264913248883915      -0.31326735062824740        0.00000000    
 -0.72296081834264314      -0.41337748502025928        0.00000000    
 -0.65778269058899941      -0.51014748980648039        0.00000000    
 -0.57513704815244282      -0.59872902944503026        0.00000000    
 -0.47969937322086620      -0.67627932696962834        0.00000000    
 -0.37027212192563680      -0.74020868809735751        0.00000000    
 -0.25281860147303109      -0.78664721036685759        0.00000000    
 -0.12771651989548521      -0.81637610438946973        0.00000000    
   4.4358226322776659E-005 -0.82517097780449167        0.00000000    
  0.12780498092767695      -0.81637085308893931        0.00000000    
  0.25290554999483439      -0.78663686229716723        0.00000000    
  0.37035712124872366      -0.74019364164044643        0.00000000    
  0.47978135181276216      -0.67625998632798145        0.00000000    
  0.57521575547051285      -0.59870606566945261        0.00000000    
  0.65785735257641409      -0.51012141050617144        0.00000000    
  0.72303139848558051      -0.41334904401825845        0.00000000    
  0.77271516069044111      -0.31323701182839681        0.00000000    
  0.80498268122583760      -0.21125366036454279        0.00000000    
  0.82180071602134674      -0.11230274367113996        0.00000000    
  0.82374231745168602       -1.6596955605746394E-002   0.00000000    
  0.81220880205066626        7.2443954268728072E-002   0.00000000    
  0.78907234602982690       0.15530011536448218        0.00000000    
  0.75508858700916570       0.23027488278185881        0.00000000    
  0.71239965116409965       0.29796619479644459        0.00000000    
  0.66136021713586224       0.35791421262403894        0.00000000    
  0.60389234145417481       0.41054177920542767        0.00000000    
  0.54021603817433539       0.45606925478209420        0.00000000    
  0.47190725163317676       0.49468389925265061        0.00000000    
  0.39920877811703892       0.52690050961760360        0.00000000    
  0.32337092548949281       0.55269879081201279        0.00000000    
  0.24472826184834515       0.57266734099082450        0.00000000    
  0.16426289256529494       0.58661622575312788        0.00000000    
   8.2430455406961062E-002  0.59509411319032834        0.00000000    
   0.0000000000000000       0.59776870730709608        0.00000000    
   0.0000000000000000       0.67961339520395592        0.00000000    
  -8.0779576857509833E-002  0.67640190624943441        0.00000000    
 -0.16093925938969947       0.66724273958648950        0.00000000    
 -0.24002460515987292       0.65153325208526169        0.00000000    
 -0.31721586126748813       0.62960775709750016        0.00000000    
 -0.39221042222347202       0.60076402212295499        0.00000000    
 -0.46392874867413736       0.56517609939645352        0.00000000    
 -0.53221723093167228       0.52211205166711416        0.00000000    
 -0.59565018094533839       0.47154457138438971        0.00000000    
 -0.65420607200049641       0.41287024765028424        0.00000000    
 -0.70601246214732749       0.34578964889452724        0.00000000    
 -0.75109158860545489       0.27015207402885438        0.00000000    
 -0.78706958851194520       0.18531619969471944        0.00000000    
 -0.81375439391374726        9.2180152522610900E-002   0.00000000    
 -0.82846345212186845       -1.0159858619359492E-002   0.00000000    
 -0.83032604263885090      -0.11888752553690959        0.00000000    