 <VTKFile type="UnstructuredGrid" version="0.1" byte_order="BigEndian">
 <UnstructuredGrid>
 <Piece NumberOfPoints="        2601 " NumberOfCells="        2500 ">
 <PointData Scalars="scalars">
 <DataArray type="Float32" NumberOfComponents="3" Name="Velocity" Format="ascii">
   0.0000000000000000        0.0000000000000000        0.00000000    
 -0.11326203734315302        0.0000000000000000        0.00000000    
 -0.22606389587661771        0.0000000000000000        0.00000000    
 -0.33727123070295129        0.0000000000000000        0.00000000    
 -0.44700945089728805        0.0000000000000000        0.00000000    
 -0.55339459192739382        0.0000000000000000        0.00000000    
 -0.65702324781179122        0.0000000000000000        0.00000000    
 -0.75519061565275569        0.0000000000000000        0.00000000    
 -0.84881054260841038        0.0000000000000000        0.00000000    
 -0.93428799543422703        0.0000000000000000        0.00000000    
  -1.0126582524257546        0.0000000000000000        0.00000000    
  -1.0793854564165670        0.0000000000000000        0.00000000    
  -1.1354337270234294        0.0000000000000000        0.00000000    
  -1.1753705769785581        0.0000000000000000        0.00000000    
  -1.2000523845660569        0.0000000000000000        0.00000000    
  -1.2034792311061615        0.0000000000000000        0.00000000    
  -1.1867684506099367        0.0000000000000000        0.00000000    
  -1.1442055237177047        0.0000000000000000        0.00000000    
  -1.0780138922672122        0.0000000000000000        0.00000000    
 -0.98408251833633131        0.0000000000000000        0.00000000    
 -0.86655798515125859        0.0000000000000000        0.00000000    
 -0.72409222060100775        0.0000000000000000        0.00000000    
 -0.56270051030556545        0.0000000000000000        0.00000000    
 -0.38411461614375808        0.0000000000000000        0.00000000    
 -0.19510424451767200        0.0000000000000000        0.00000000    
   4.7985808108842818E-006   0.0000000000000000        0.00000000    
  0.19511387598954871        0.0000000000000000        0.00000000    
  0.38412427578500768        0.0000000000000000        0.00000000    
  0.56271031926346737        0.0000000000000000        0.00000000    
  0.72410227606726818        0.0000000000000000        0.00000000    
  0.86656850243551109        0.0000000000000000        0.00000000    
  0.98409367644135060        0.0000000000000000        0.00000000    
   1.0780259160589636        0.0000000000000000        0.00000000    
   1.1442185363233508        0.0000000000000000        0.00000000    
   1.1867825570213597        0.0000000000000000        0.00000000    
   1.2034943836554093        0.0000000000000000        0.00000000    
   1.2000685017797132        0.0000000000000000        0.00000000    
   1.1753874205396191        0.0000000000000000        0.00000000    
   1.1354510609915338        0.0000000000000000        0.00000000    
   1.0794029228932416        0.0000000000000000        0.00000000    
   1.0126755399357745        0.0000000000000000        0.00000000    
  0.93430471458290698        0.0000000000000000        0.00000000    
  0.84882637883581569        0.0000000000000000        0.00000000    
  0.75520521616531933        0.0000000000000000        0.00000000    
  0.65703634216353390        0.0000000000000000        0.00000000    
  0.55340589974943610        0.0000000000000000        0.00000000    
  0.44701877064225076        0.0000000000000000        0.00000000    
  0.33727837114247855        0.0000000000000000        0.00000000    
  0.22606873432502697        0.0000000000000000        0.00000000    
  0.11326447719075380        0.0000000000000000        0.00000000    
   0.0000000000000000        0.0000000000000000        0.00000000    
   0.0000000000000000       0.11326571799277248        0.00000000    
 -0.11287762137634155       0.11287542790467163        0.00000000    
 -0.22497155081101552       0.11202184695607405        0.00000000    
 -0.33613272699249896       0.11034815026939024        0.00000000    
 -0.44486398366333474       0.10812281194677337        0.00000000    
 -0.55155355711142218       0.10495338651389004        0.00000000    
 -0.65392001177965897       0.10104320654202627        0.00000000    
 -0.75275929777932071        9.5964927704721800E-002   0.00000000    
 -0.84493699262901723        8.9834172366340240E-002   0.00000000    
 -0.93148295898093081        8.2190722206054390E-002   0.00000000    
  -1.0083463861168238        7.3044434457812737E-002   0.00000000    
  -1.0765827639856527        6.1920616253540936E-002   0.00000000    
  -1.1312001511920604        4.8746506795237475E-002   0.00000000    
  -1.1731193893129686        3.3111042017770445E-002   0.00000000    
  -1.1965396539087738        1.4992486554541756E-002   0.00000000    
  -1.2023527362851620       -5.7511064592857195E-003   0.00000000    
  -1.1844870120398221       -2.8823952014450246E-002   0.00000000    
  -1.1444338772565217       -5.3790669028344951E-002   0.00000000    
  -1.0769912472035399       -7.9842156936443892E-002   0.00000000    
 -0.98525520129120281      -0.10582383290387794        0.00000000    
 -0.86630681417967625      -0.13064766208172782        0.00000000    
 -0.72538333781349196      -0.15274015824990045        0.00000000    
 -0.56267556080018266      -0.17135791209213957        0.00000000    
 -0.38487498137597903      -0.18502714771914158        0.00000000    
 -0.19509671556259670      -0.19376007791618369        0.00000000    
   5.3060557805379591E-006 -0.19644957612456618        0.00000000    
  0.19510730412093671      -0.19376008867342034        0.00000000    
  0.38488560982015074      -0.18502720501770131        0.00000000    
  0.56268625289005014      -0.17135806775692050        0.00000000    
  0.72539425831902271      -0.15274047751051767        0.00000000    
  0.86631811387765312      -0.13064818383330265        0.00000000    
  0.98526712109233761      -0.10582457207833849        0.00000000    
   1.0770039659611088       -7.9843082407603697E-002   0.00000000    
   1.1444475798901008       -5.3791716249855889E-002   0.00000000    
   1.1845017486041125       -2.8825032532483245E-002   0.00000000    
   1.2023685190375737       -5.7521182705039956E-003   0.00000000    
   1.1965563313217673        1.4991639037236886E-002   0.00000000    
   1.1731367900965299        3.3110439813385677E-002   0.00000000    
   1.1312179611333402        4.8746209430976829E-002   0.00000000    
   1.0766006957017089        6.1920659330443835E-002   0.00000000    
   1.0083640535256000        7.3044834650718801E-002   0.00000000    
  0.93150004177731494        8.2191474982672610E-002   0.00000000    
  0.84495311479495938        8.9835263137155355E-002   0.00000000    
  0.75277416492829030        9.5966327661386158E-002   0.00000000    
  0.65393330660232096       0.10104488506810923        0.00000000    
  0.55156504462873568       0.10495530181844424        0.00000000    
  0.44487342966657167       0.10812492622893619        0.00000000    
  0.33613997088557962       0.11035041739836542        0.00000000    
  0.22497644989557378       0.11202422662226992        0.00000000    
  0.11288009477751888       0.11287787251818893        0.00000000    
   0.0000000000000000       0.11326818662355283        0.00000000    
   0.0000000000000000       0.22543340572306833        0.00000000    
 -0.11139833245953472       0.22498511964967990        0.00000000    
 -0.22235400034445441       0.22296317778522570        0.00000000    
 -0.33174442655571967       0.21995984662114271        0.00000000    
 -0.43972619001361740       0.21522555934893117        0.00000000    
 -0.54442780526367562       0.20924325047832201        0.00000000    
 -0.64650163319941401       0.20119504588475320        0.00000000    
 -0.74326315259656317       0.19141531296764799        0.00000000    
 -0.83571929618895113       0.17901904195056306        0.00000000    
 -0.92031067680211431       0.16414461389287374        0.00000000    
 -0.99820714858806581       0.14585185231702660        0.00000000    
  -1.0649210916500229       0.12406492717130967        0.00000000    
  -1.1215579879522777        9.7857882649588723E-002   0.00000000    
  -1.1626967837654931        6.7059099857447818E-002   0.00000000    
  -1.1892350150503830        3.1004318908225501E-002   0.00000000    
  -1.1950218542090321       -1.0161627144787543E-002   0.00000000    
  -1.1810137102584157       -5.6285915526603725E-002   0.00000000    
  -1.1411007713272363      -0.10629339985124550        0.00000000    
  -1.0772849126612249      -0.15859654185365218        0.00000000    
 -0.98500144582488702      -0.21108759234290955        0.00000000    
 -0.86848875173035744      -0.26084362141297729        0.00000000    
 -0.72618780343964706      -0.30576726505895979        0.00000000    
 -0.56458038750011674      -0.34264464435741598        0.00000000    
 -0.38538498726922144      -0.37073504386549178        0.00000000    
 -0.19576347907025229      -0.38745060707987156        0.00000000    
   6.7945174579461485E-006 -0.39362999439194912        0.00000000    
  0.19577705836155199      -0.38745058454046011        0.00000000    
  0.38539846168186170      -0.37073506946848078        0.00000000    
  0.56459382128212154      -0.34264485473381467        0.00000000    
  0.72620126608663116      -0.30576778688999906        0.00000000    
  0.86850245930084902      -0.26084456471184347        0.00000000    
  0.98501560482075734      -0.21108898150075550        0.00000000    
   1.0772997756506595      -0.15859832029389656        0.00000000    
   1.1411164916906098      -0.10629543535642433        0.00000000    
   1.1810304020358018       -5.6288013108771837E-002   0.00000000    
   1.1950394635826389       -1.0163585679560560E-002   0.00000000    
   1.1892534472892908        3.1002700585036996E-002   0.00000000    
   1.1627157799484995        6.7057981140521944E-002   0.00000000    
   1.1215772957564392        9.7857381015095571E-002   0.00000000    
   1.0649403377169795       0.12406511447682632        0.00000000    
  0.99822601687837120       0.14585275036111492        0.00000000    
  0.92032877909720134       0.16414621942168481        0.00000000    
  0.83573632466970560       0.17902131440967103        0.00000000    
  0.74327876223997613       0.19141820508597865        0.00000000    
  0.64651556506766417       0.20119848234625648        0.00000000    
  0.54443979050557045       0.20924716177473388        0.00000000    
  0.43973603781746146       0.21522985658692353        0.00000000    
  0.33175195474258745       0.21996445251695804        0.00000000    
  0.22235909314409846       0.22296799887585655        0.00000000    
  0.11140089807945038       0.22499007569738974        0.00000000    
   0.0000000000000000       0.22543840193626560        0.00000000    
   0.0000000000000000       0.33606929164496574        0.00000000    
 -0.10916240045958936       0.33491133097802883        0.00000000    
 -0.21756675259180247       0.33239835063004242        0.00000000    
 -0.32510764627405331       0.32745735696138817        0.00000000    
 -0.43030832164030963       0.32091185058583005        0.00000000    
 -0.53363646474895010       0.31158807860916576        0.00000000    
 -0.63283763774657531       0.30012657875378745        0.00000000    
 -0.72884745924389316       0.28525647840817830        0.00000000    
 -0.81857959191564167       0.26736750877403231        0.00000000    
 -0.90328763496684572       0.24509692313814618        0.00000000    
 -0.97900259980277771       0.21851233011547927        0.00000000    
  -1.0470775184510175       0.18619465692905859        0.00000000    
  -1.1026104444972049       0.14789931843127258        0.00000000    
  -1.1467670481588064       0.10231440116972024        0.00000000    
  -1.1736827047999692        4.9204239746120759E-002   0.00000000    
  -1.1841627561124355       -1.2093329795776738E-002   0.00000000    
  -1.1716156719772510       -8.0908117309792013E-002   0.00000000    
  -1.1370328158599592      -0.15616567665061346        0.00000000    
  -1.0742462868417830      -0.23532534067890917        0.00000000    
 -0.98608289887467671      -0.31480434350710573        0.00000000    
 -0.86887985103818099      -0.39084131151930646        0.00000000    
 -0.72856644251769453      -0.45838263742242374        0.00000000    
 -0.56521908559671941      -0.51498275372631530        0.00000000    
 -0.38662846939538759      -0.55618166411574677        0.00000000    
 -0.19587188724931281      -0.58238079209977012        0.00000000    
   9.3579694779101726E-006 -0.59035004463320795        0.00000000    
  0.19589047428338852      -0.58238063091208303        0.00000000    
  0.38664682311811183      -0.55618149017758656        0.00000000    
  0.56523709715420123      -0.51498278084900806        0.00000000    
  0.72858422040965654      -0.45838313770802386        0.00000000    
  0.86889756378358907      -0.39084245614237489        0.00000000    
  0.98610083491912659      -0.31480620606733528        0.00000000    
   1.0742647050294234      -0.23532783185606510        0.00000000    
   1.1370519467869509      -0.15616856953501865        0.00000000    
   1.1716355905791120       -8.0911116604779884E-002   0.00000000    
   1.1841834643750886       -1.2096093878138202E-002   0.00000000    
   1.1737040120380049        4.9202005126194007E-002   0.00000000    
   1.1467887460099682       0.10231294418851136        0.00000000    
   1.1026321778272017       0.14789880795709270        0.00000000    
   1.0470989816428256       0.18619518494558349        0.00000000    
  0.97902339553986928       0.21851393267572861        0.00000000    
  0.90330744908290650       0.24509957176279504        0.00000000    
  0.81859806151287684       0.26737115646612342        0.00000000    
  0.72886431209962577       0.28526103086800886        0.00000000    
  0.63285257934865058       0.30013194389819287        0.00000000    
  0.53364928340782214       0.31159413078780518        0.00000000    
  0.43031880419865914       0.32091848047570498        0.00000000    
  0.32511565028130340       0.32746442836893103        0.00000000    
  0.21757215013486705       0.33240574805586959        0.00000000    
  0.10916512057091717       0.33491891529752138        0.00000000    
   0.0000000000000000       0.33607694531313176        0.00000000    
   0.0000000000000000       0.44343057256764340        0.00000000    
 -0.10585117638539314       0.44256493035346561        0.00000000    
 -0.21130374256860662       0.43860297254739561        0.00000000    
 -0.31526308010090726       0.43275426900200342        0.00000000    
 -0.41796587873765179       0.42351971385729281        0.00000000    
 -0.51756728690926590       0.41191106742990330        0.00000000    
 -0.61486587920682478       0.39630465362697209        0.00000000    
 -0.70721847796109194       0.37744212136340388        0.00000000    
 -0.79588435919000189       0.35358117387286891        0.00000000    
 -0.87738225778484313       0.32509049259317724        0.00000000    
 -0.95327240317778428       0.29012515932416083        0.00000000    
  -1.0191984824370406       0.24858411225525534        0.00000000    
  -1.0767458751318504       0.19859146290760638        0.00000000    
  -1.1206113575188765       0.13964562127249322        0.00000000    
  -1.1519604378876080        7.0139028492142069E-002   0.00000000    
  -1.1643818911384103       -1.0125345505595636E-002   0.00000000    
  -1.1583638575788029      -0.10143995858147056        0.00000000    
  -1.1266338528399491      -0.20194543961409053        0.00000000    
  -1.0702515819961000      -0.30871312940427992        0.00000000    
 -0.98307269687745114      -0.41675758402208735        0.00000000    
 -0.86958537218081833      -0.51957720786932748        0.00000000    
 -0.72763700257524133      -0.61190728731088995        0.00000000    
 -0.56562960716042920      -0.68681163079042595        0.00000000    
 -0.38544826722849379      -0.74312352031996975        0.00000000    
 -0.19562389373324326      -0.77601867224861132        0.00000000    
   1.3011888880992460E-005 -0.78822909690913734        0.00000000    
  0.19564975634595616      -0.77601822099116946        0.00000000    
  0.38547355739179617      -0.74312283069143770        0.00000000    
  0.56565419522004790      -0.68681112933556288        0.00000000    
  0.72766087533885804      -0.61190736721397709        0.00000000    
  0.86960876341758264      -0.51957822620332961        0.00000000    
  0.98309593783522620      -0.41675964589368691        0.00000000    
   1.0702750282615363      -0.30871610872351835        0.00000000    
   1.1266577584413504      -0.20194901643469737        0.00000000    
   1.1583883594843360      -0.10144365792249832        0.00000000    
   1.1644069049232315       -1.0128711085530756E-002   0.00000000    
   1.1519858151498610        7.0136432913264268E-002   0.00000000    
   1.1206367614886028       0.13964410792570739        0.00000000    
   1.0767710107628763       0.19859124165484174        0.00000000    
   1.0192229431739934       0.24858529607844629        0.00000000    
  0.95329587409202543       0.29012776335094487        0.00000000    
  0.87740436165625380       0.32509448841081962        0.00000000    
  0.79590481851672212       0.35358646343113193        0.00000000    
  0.70723698237628085       0.37744860360567506        0.00000000    
  0.61488220782430691       0.39631217603587693        0.00000000    
  0.51758120692280540       0.41191949388671961        0.00000000    
  0.41797723171014861       0.42352887260608973        0.00000000    
  0.31527171143520072       0.43276401173543522        0.00000000    
  0.21130955815074448       0.43861312085918536        0.00000000    
  0.10585409974246104       0.44257533343930028        0.00000000    
   0.0000000000000000       0.44344105093336234        0.00000000    
   0.0000000000000000       0.54778472564685443        0.00000000    
 -0.10182782327721804       0.54589101962543018        0.00000000    
 -0.20293550663246152       0.54183837545069591        0.00000000    
 -0.30328531216111693       0.53382925075788012        0.00000000    
 -0.40142639532219293       0.52328985532707273        0.00000000    
 -0.49795280279988785       0.50826998094693132        0.00000000    
 -0.59063769346502604       0.48993046207308322        0.00000000    
 -0.68064678970594683       0.46617924374579217        0.00000000    
 -0.76494164347533067       0.43780602172925570        0.00000000    
 -0.84516879417103241       0.40259192498816387        0.00000000    
 -0.91745955010620017       0.36080585822638583        0.00000000    
 -0.98376448366711167       0.31013565070134708        0.00000000    
  -1.0393662999297835       0.25019035634658776        0.00000000    
  -1.0861230216962536       0.17867014823984870        0.00000000    
  -1.1183331236343517        9.4674897610835126E-002   0.00000000    
  -1.1369430563274736       -3.6286229125370504E-003   0.00000000    
  -1.1347326565673359      -0.11616391225749328        0.00000000    
  -1.1114067275416155      -0.24227622679899868        0.00000000    
  -1.0586075549805445      -0.37756259708829959        0.00000000    
 -0.97796829922214701      -0.51572507870595197        0.00000000    
 -0.86393503614565148      -0.64812912683303514        0.00000000    
 -0.72450588059434506      -0.76473172849612059        0.00000000    
 -0.56004055226146676      -0.86045875171677577        0.00000000    
 -0.38171510348476861      -0.92798203273183455        0.00000000    
 -0.19260327045428607      -0.97009521274188937        0.00000000    
   1.7932443727201789E-005 -0.98240951351178218        0.00000000    
  0.19263873751187352      -0.97009420248977396        0.00000000    
  0.38174966587150572      -0.92798042497828781        0.00000000    
  0.56007377560890315      -0.86045712724500201        0.00000000    
  0.72453775059247516      -0.76473086277225177        0.00000000    
  0.86396581506072101      -0.64812951818599196        0.00000000    
  0.97799842152826744      -0.51572696067297208        0.00000000    
   1.0586375122794878      -0.37756579661534356        0.00000000    
   1.1114368568657143      -0.24228021477599640        0.00000000    
   1.1347630599119347      -0.11616807077018898        0.00000000    
   1.1369736795128391       -3.6322610444995598E-003   0.00000000    
   1.1183636591521637        9.4672298770204402E-002   0.00000000    
   1.0861531862785598       0.17866898237884066        0.00000000    
   1.0393956661252586       0.25019085432938570        0.00000000    
  0.98379273516949384       0.31013790487191278        0.00000000    
  0.91748629625928957       0.36080988707344558        0.00000000    
  0.84519376016307912       0.40259764318504604        0.00000000    
  0.76496451175907310       0.43781333115683008        0.00000000    
  0.68066734221033387       0.46618797680520596        0.00000000    
  0.59065568985036332       0.48994046557711379        0.00000000    
  0.49796808189576369       0.50828105219755249        0.00000000    
  0.40143878949943002       0.52330182123723690        0.00000000    
  0.30329471632659682       0.53384189797540982        0.00000000    
  0.20294182129168911       0.54185152453227936        0.00000000    
  0.10183099686551692       0.54590445523296061        0.00000000    
   0.0000000000000000       0.54779826843172919        0.00000000    
   0.0000000000000000       0.64676260813507369        0.00000000    
  -9.6784762476697386E-002  0.64552690533272217        0.00000000    
 -0.19322128505239139       0.63974787755650708        0.00000000    
 -0.28824337990439070       0.63129283094181010        0.00000000    
 -0.38218241669566855       0.61790757531977270        0.00000000    
 -0.47321126958594240       0.60120870156909545        0.00000000    
 -0.56230753855674864       0.57877407850476725        0.00000000    
 -0.64684326786659607       0.55188163023097747        0.00000000    
 -0.72840476675767274       0.51796116126773217        0.00000000    
 -0.80354212499994326       0.47780246749883387        0.00000000    
 -0.87437746744630029       0.42872258198911573        0.00000000    
 -0.93665343958527514       0.37080099986853754        0.00000000    
 -0.99282220455188142       0.30129674913302096        0.00000000    
  -1.0378417715321977       0.21934120352267489        0.00000000    
  -1.0738633247460878       0.12223664886657909        0.00000000    
  -1.0948218941508465        8.3792767205884792E-003   0.00000000    
  -1.1008557093624010      -0.12434725730666660        0.00000000    
  -1.0833426492946054      -0.27493073578113070        0.00000000    
  -1.0404517650244196      -0.44059702134185935        0.00000000    
 -0.96231678172931234      -0.61146377489052806        0.00000000    
 -0.85333429201861621      -0.77540507683587201        0.00000000    
 -0.71036201104001084      -0.91985611286932223        0.00000000    
 -0.54780435304888775       -1.0323562612869082        0.00000000    
 -0.36911079460237906       -1.1131024407468528        0.00000000    
 -0.18588927536387978       -1.1573070725663193        0.00000000    
   2.4144735639705362E-005  -1.1737311931216559        0.00000000    
  0.18593710641782935       -1.1573052060671434        0.00000000    
  0.36915706116274455       -1.1130992200765770        0.00000000    
  0.54784851751922747       -1.0323528086035214        0.00000000    
  0.71040390665958353      -0.91985345315849742        0.00000000    
  0.85337421988355944      -0.77540420334004045        0.00000000    
  0.96235545310948944      -0.61146500861506614        0.00000000    
   1.0404897846193324      -0.44060005232182103        0.00000000    
   1.0833804726458041      -0.27493486808995421        0.00000000    
   1.1008934601201099      -0.12435147291813339        0.00000000    
   1.0948593313469102        8.3757894043723479E-003   0.00000000    
   1.0739001782996844       0.12223457051619625        0.00000000    
   1.0378775709930377       0.21934094219543906        0.00000000    
  0.99285662994972901       0.30129851502760313        0.00000000    
  0.93668608142025833       0.37080488437886461        0.00000000    
  0.87440806149045192       0.42872853363214458        0.00000000    
  0.80357035547563238       0.47781040662476137        0.00000000    
  0.72843043190836632       0.51797091279510132        0.00000000    
  0.64686613395222026       0.55189303603049600        0.00000000    
  0.56232745738268186       0.57878691264294113        0.00000000    
  0.47322807496274238       0.60122277291963122        0.00000000    
  0.38219600699643280       0.61792264112018669        0.00000000    
  0.28825364824227045       0.63130869023919600        0.00000000    
  0.19322817212143178       0.63976428532880703        0.00000000    
   9.6788215419433568E-002  0.64554365744223785        0.00000000    
   0.0000000000000000       0.64677946094447258        0.00000000    
   0.0000000000000000       0.74139629123213524        0.00000000    
  -9.1123433550799854E-002  0.73880254044065108        0.00000000    
 -0.18156033424448409       0.73334678798147557        0.00000000    
 -0.27133557777611039       0.72249237996485327        0.00000000    
 -0.35901436287518995       0.70832696949527063        0.00000000    
 -0.44531130454565415       0.68811622085133384        0.00000000    
 -0.52799716600070112       0.66364980889950276        0.00000000    
 -0.60846926693230086       0.63201484568149446        0.00000000    
 -0.68366340932986169       0.59458470307821776        0.00000000    
 -0.75565627018300963       0.54831025583862458        0.00000000    
 -0.82054300706846672       0.49393798424388929        0.00000000    
 -0.88103677776002376       0.42835644546795965        0.00000000    
 -0.93246310277370936       0.35133749827458410        0.00000000    
 -0.97792940123378713       0.25978741691423662        0.00000000    
  -1.0121360910234176       0.15201977430092531        0.00000000    
  -1.0375333730906102        2.4953089191122425E-002   0.00000000    
  -1.0479372063271373      -0.12448233800354959        0.00000000    
  -1.0410782490302415      -0.29916660102319859        0.00000000    
  -1.0054863043487350      -0.49484291890098264        0.00000000    
 -0.93734689171560437      -0.70349122171592859        0.00000000    
 -0.82582307567878943      -0.90388289010855438        0.00000000    
 -0.68483152672283432       -1.0753410981929108        0.00000000    
 -0.51728295292725301       -1.2069764805456227        0.00000000    
 -0.34463814258849673       -1.2898195724673880        0.00000000    
 -0.17073833208121247       -1.3377102545004431        0.00000000    
   3.1925706861137450E-005  -1.3500106759576354        0.00000000    
  0.17080128371945349       -1.3377070298087184        0.00000000    
  0.34469901041634160       -1.2898140616861564        0.00000000    
  0.51734058990297993       -1.2069699850320681        0.00000000    
  0.68488561039731899       -1.0753356591616954        0.00000000    
  0.82587416932009283      -0.90387983814731898        0.00000000    
  0.93739578622534370      -0.70349117829212582        0.00000000    
   1.0055340893542253      -0.49484546574288074        0.00000000    
   1.0411254029306436      -0.29917039012481889        0.00000000    
   1.0479836881278397      -0.12448615213296153        0.00000000    
   1.0375789440132897        2.4950424828423759E-002   0.00000000    
   1.0121801855610308       0.15201893302020389        0.00000000    
  0.97797169136841477       0.25978877700872255        0.00000000    
  0.93250315331475442       0.35134125639949759        0.00000000    
  0.88107434813418206       0.42836260147323441        0.00000000    
  0.82057779474581627       0.49394649487503095        0.00000000    
  0.75568810739132541       0.54832095000941838        0.00000000    
  0.68369208557205763       0.59459742584724529        0.00000000    
  0.60849466496978932       0.63202935750459965        0.00000000    
  0.52801913888606222       0.66366590942132653        0.00000000    
  0.44532977097377219       0.68813364572005975        0.00000000    
  0.35902922416100369       0.70834550199126700        0.00000000    
  0.27134678288583092       0.72251175070110052        0.00000000    
  0.18156782683020323       0.73336677810320117        0.00000000    
   9.1127189391855226E-002  0.73882288106717176        0.00000000    
   0.0000000000000000       0.74141676430377801        0.00000000    
   0.0000000000000000       0.82872005306293450        0.00000000    
  -8.4554677198387981E-002  0.82715795187031305        0.00000000    
 -0.16879858609241177       0.81967324801445907        0.00000000    
 -0.25168568005344499       0.80882931961664872        0.00000000    
 -0.33361689109397569       0.79160108625924919        0.00000000    
 -0.41276378645062839       0.77028700199910716        0.00000000    
 -0.49024228974565393       0.74164445017144998        0.00000000    
 -0.56337992673877058       0.70763100084111252        0.00000000    
 -0.63403721762593390       0.66482103516779179        0.00000000    
 -0.69864359461021497       0.61467421649181520        0.00000000    
 -0.75984935508260176       0.55366756994842792        0.00000000    
 -0.81318958448129031       0.48246190965812330        0.00000000    
 -0.86211376786091176       0.39758358495627594        0.00000000    
 -0.90142584751281707       0.29832075103033845        0.00000000    
 -0.93511714033845095       0.18138545658153074        0.00000000    
 -0.95774208950666284        4.3610670636200374E-002   0.00000000    