 <VTKFile type="UnstructuredGrid" version="0.1" byte_order="BigEndian">
 <UnstructuredGrid>
 <Piece NumberOfPoints="        2601 " NumberOfCells="        2500 ">
 <PointData Scalars="scalars">
 <DataArray type="Float32" NumberOfComponents="3" Name="Velocity" Format="ascii">
   0.0000000000000000        0.0000000000000000        0.00000000    
  -1.8766130386025499E-002   0.0000000000000000        0.00000000    
  -3.7243294226357027E-002   0.0000000000000000        0.00000000    
  -5.5184034047173612E-002   0.0000000000000000        0.00000000    
  -7.2271892667395199E-002   0.0000000000000000        0.00000000    
  -8.8313351339982110E-002   0.0000000000000000        0.00000000    
 -0.10298013427391588        0.0000000000000000        0.00000000    
 -0.11614345782061729        0.0000000000000000        0.00000000    
 -0.12748053089230987        0.0000000000000000        0.00000000    
 -0.13693615615068366        0.0000000000000000        0.00000000    
 -0.14421165800182745        0.0000000000000000        0.00000000    
 -0.14933166553481023        0.0000000000000000        0.00000000    
 -0.15204083686711553        0.0000000000000000        0.00000000    
 -0.15244626379524306        0.0000000000000000        0.00000000    
 -0.15035449557798178        0.0000000000000000        0.00000000    
 -0.14595296428865057        0.0000000000000000        0.00000000    
 -0.13912630048772837        0.0000000000000000        0.00000000    
 -0.13013436603035972        0.0000000000000000        0.00000000    
 -0.11895173180107027        0.0000000000000000        0.00000000    
 -0.10589645413067912        0.0000000000000000        0.00000000    
  -9.1038676905523891E-002   0.0000000000000000        0.00000000    
  -7.4734377952160425E-002   0.0000000000000000        0.00000000    
  -5.7147268171177774E-002   0.0000000000000000        0.00000000    
  -3.8646229173400784E-002   0.0000000000000000        0.00000000    
  -1.9478341537602160E-002   0.0000000000000000        0.00000000    
   2.1293164078151151E-006   0.0000000000000000        0.00000000    
   1.9482562805800414E-002   0.0000000000000000        0.00000000    
   3.8650457645833976E-002   0.0000000000000000        0.00000000    
   5.7151429726225889E-002   0.0000000000000000        0.00000000    
   7.4738515830513955E-002   0.0000000000000000        0.00000000    
   9.1042718747902387E-002   0.0000000000000000        0.00000000    
  0.10590044074886647        0.0000000000000000        0.00000000    
  0.11895559391380785        0.0000000000000000        0.00000000    
  0.13013814089485717        0.0000000000000000        0.00000000    
  0.13912992285842701        0.0000000000000000        0.00000000    
  0.14595646733422521        0.0000000000000000        0.00000000    
  0.15035781936833095        0.0000000000000000        0.00000000    
  0.15244943694691032        0.0000000000000000        0.00000000    
  0.15204380565000081        0.0000000000000000        0.00000000    
  0.14933445430814679        0.0000000000000000        0.00000000    
  0.14421421990421793        0.0000000000000000        0.00000000    
  0.13693851095857695        0.0000000000000000        0.00000000    
  0.12748263965147968        0.0000000000000000        0.00000000    
  0.11614533607369973        0.0000000000000000        0.00000000    
  0.10298175125696098        0.0000000000000000        0.00000000    
   8.8314718519978894E-002   0.0000000000000000        0.00000000    
   7.2272987863709448E-002   0.0000000000000000        0.00000000    
   5.5184864728451848E-002   0.0000000000000000        0.00000000    
   3.7243847034949318E-002   0.0000000000000000        0.00000000    
   1.8766409027385120E-002   0.0000000000000000        0.00000000    
   0.0000000000000000        0.0000000000000000        0.00000000    
   0.0000000000000000        1.8867929102684262E-002   0.00000000    
  -1.8832754803012188E-002   1.8732411852179123E-002   0.00000000    
  -3.7394953207370754E-002   1.8308406129443278E-002   0.00000000    
  -5.5381127335792667E-002   1.7619963505266293E-002   0.00000000    
  -7.2568812712370576E-002   1.6657036091913286E-002   0.00000000    
  -8.8632426514313647E-002   1.5449491882991615E-002   0.00000000    
 -0.10340921238598422        1.3995532286419560E-002   0.00000000    
 -0.11656995312450892        1.2329987219792201E-002   0.00000000    
 -0.12802150405161888        1.0460091819651438E-002   0.00000000    
 -0.13744905865545873        8.4245429058804003E-003   0.00000000    
 -0.14483679353122861        6.2401484706359868E-003   0.00000000    
 -0.14990343209334894        3.9479520727849372E-003   0.00000000    
 -0.15271513823980967        1.5743796198932015E-003   0.00000000    
 -0.15304337355674633       -8.3926337391189052E-004   0.00000000    
 -0.15103678541606907       -3.2576392238591306E-003   0.00000000    
 -0.14653737104755002       -5.6418528852347381E-003   0.00000000    
 -0.13977141813506894       -7.9493105112921503E-003   0.00000000    
 -0.13066595388807703       -1.0146635072495159E-002   0.00000000    
 -0.11951385737775394       -1.2186642754440690E-002   0.00000000    
 -0.10633636089148081       -1.4044678657895561E-002   0.00000000    
  -9.1475494262618945E-002  -1.5672512621770367E-002   0.00000000    
  -7.5048799667300214E-002  -1.7057028481720041E-002   0.00000000    
  -5.7424401496885963E-002  -1.8153027144876457E-002   0.00000000    
  -3.8810120583650264E-002  -1.8960840522551547E-002   0.00000000    
  -1.9573319541640613E-002  -1.9442395974067363E-002   0.00000000    
   2.1081214845550910E-006  -1.9612050389586858E-002   0.00000000    
   1.9577558276896362E-002  -1.9442381101727982E-002   0.00000000    
   3.8814307167537622E-002  -1.8960810447750095E-002   0.00000000    
   5.7428580215563969E-002  -1.8152982437059026E-002   0.00000000    
   7.5052897052438935E-002  -1.7056968179280655E-002   0.00000000    
   9.1479552674587170E-002  -1.5672437915024283E-002   0.00000000    
  0.10634030929052361       -1.4044588127486409E-002   0.00000000    
  0.11951773512732561       -1.2186538129874261E-002   0.00000000    
  0.13066969352121793       -1.0146514332337063E-002   0.00000000    
  0.13977505504075044       -7.9491760301234355E-003   0.00000000    
  0.14654084242257776       -5.6417025105579468E-003   0.00000000    
  0.15104012222226379       -3.2574757743960292E-003   0.00000000    
  0.15304651880571685       -8.3908462738799922E-004   0.00000000    
  0.15271811847373323        1.5745702572912865E-003   0.00000000    
  0.14990619686241055        3.9481569098901471E-003   0.00000000    
  0.14483936500405475        6.2403638008155073E-003   0.00000000    
  0.13745139383655669        8.4247709620291610E-003   0.00000000    
  0.12802362053871108        1.0460328506343661E-002   0.00000000    
  0.11657181600971581        1.2330234641184254E-002   0.00000000    
  0.10341083517175599        1.3995786234618468E-002   0.00000000    
   8.8633782716283097E-002   1.5449754321761724E-002   0.00000000    
   7.2569911792727940E-002   1.6657302758561220E-002   0.00000000    
   5.5381951467328147E-002   1.7620236302599852E-002   0.00000000    
   3.7395507944346658E-002   1.8308680599481601E-002   0.00000000    
   1.8833031242909141E-002   1.8732689846578846E-002   0.00000000    
   0.0000000000000000        1.8868206189668547E-002   0.00000000    
   0.0000000000000000        3.7888582984307417E-002   0.00000000    
  -1.9051655632763110E-002   3.7597562324631718E-002   0.00000000    
  -3.7811196473007576E-002   3.6766388796590568E-002   0.00000000    
  -5.6028768194532876E-002   3.5367120518950683E-002   0.00000000    
  -7.3383841020046789E-002   3.3454031042648158E-002   0.00000000    
  -8.9681131345843115E-002   3.1014794697538671E-002   0.00000000    
 -0.10458722212395574        2.8114499649393533E-002   0.00000000    
 -0.11797219741724432        2.4758129237708072E-002   0.00000000    
 -0.12950702698775837        2.1019723503869044E-002   0.00000000    
 -0.13913617058661534        1.6923002406296003E-002   0.00000000    
 -0.14655377828312421        1.2548424353771216E-002   0.00000000    
 -0.15178522910550357        7.9391581317402697E-003   0.00000000    
 -0.15456747719758751        3.1785201707194128E-003   0.00000000    
 -0.15500984365492218       -1.6714100488920162E-003   0.00000000    
 -0.15291129423383062       -6.5292381995429600E-003   0.00000000    
 -0.14846331782131905       -1.1316253048407512E-002   0.00000000    
 -0.14154391822892964       -1.5958871393360333E-002   0.00000000    
 -0.13241900201459253       -2.0366063443001674E-002   0.00000000    
 -0.12105836420343645       -2.4478557659550419E-002   0.00000000    
 -0.10778792950177044       -2.8199304110921211E-002   0.00000000    
  -9.2675697397775453E-002  -3.1489595204427762E-002   0.00000000    
  -7.6086779977500990E-002  -3.4254167383822608E-002   0.00000000    
  -5.8185857581199422E-002  -3.6479818372295025E-002   0.00000000    
  -3.9351299226490388E-002  -3.8081498230733514E-002   0.00000000    
  -1.9834316219530471E-002  -3.9074132030948339E-002   0.00000000    
   2.1044277307460710E-006  -3.9390772394991787E-002   0.00000000    
   1.9838487559603876E-002  -3.9074102135517479E-002   0.00000000    
   3.9355478579117482E-002  -3.8081439040182859E-002   0.00000000    
   5.8189970534396993E-002  -3.6479728515581719E-002   0.00000000    
   7.6090870687244502E-002  -3.4254048653244641E-002   0.00000000    
   9.2679693257430043E-002  -3.1489445102538434E-002   0.00000000    
  0.10779187203233018       -2.8199125633578945E-002   0.00000000    
  0.12106218373540420       -2.4478347333815851E-002   0.00000000    
  0.13242273650962605       -2.0365825250576779E-002   0.00000000    
  0.14154750226518467       -1.5958601178166987E-002   0.00000000    
  0.14846678491125401       -1.1315955930698804E-002   0.00000000    
  0.15291458416695081       -6.5289097673960281E-003   0.00000000    
  0.15501298549896039       -1.6710566386516472E-003   0.00000000    
  0.15457041694333379        3.1789032578212811E-003   0.00000000    
  0.15178799117633465        7.9395636590230793E-003   0.00000000    
  0.14655631574784644        1.2548856896210912E-002   0.00000000    
  0.13913850347280288        1.6923454120560111E-002   0.00000000    
  0.12950911627402897        2.1020198826472509E-002   0.00000000    
  0.11797405855492091        2.4758619773787655E-002   0.00000000    
  0.10458882435908351        2.8115009485001365E-002   0.00000000    
   8.9682486217395913E-002   3.1015315196401504E-002   0.00000000    
   7.3384926379106069E-002   3.3454566283428397E-002   0.00000000    
   5.6029591517758590E-002   3.5367661726934951E-002   0.00000000    
   3.7811744385924065E-002   3.6766939660971366E-002   0.00000000    
   1.9051931817954563E-002   3.7598113949621398E-002   0.00000000    
   0.0000000000000000        3.7889139065917600E-002   0.00000000    
   0.0000000000000000        5.7175548741776355E-002   0.00000000    
  -1.9402688441473047E-002   5.6766272744662789E-002   0.00000000    
  -3.8529386469809239E-002   5.5485249312320163E-002   0.00000000    
  -5.7067525304546590E-002   5.3405302584910559E-002   0.00000000    
  -7.4790547492808279E-002   5.0495275909509182E-002   0.00000000    
  -9.1363746143866706E-002   4.6845370645569526E-002   0.00000000    
 -0.10662147070076158        4.2449070703307987E-002   0.00000000    
 -0.12022314342745126        3.7411537755325547E-002   0.00000000    
 -0.13207407417272465        3.1753406626959586E-002   0.00000000    
 -0.14184595841131956        2.5591678302837425E-002   0.00000000    
 -0.14952325201320524        1.8975980668205848E-002   0.00000000    
 -0.15480959115966558        1.2030722537417283E-002   0.00000000    
 -0.15777397495337175        4.8349181051000481E-003   0.00000000    
 -0.15817224841343447       -2.4858377814347236E-003   0.00000000    
 -0.15615924676255069       -9.8250315610233976E-003   0.00000000    
 -0.15156234414968575       -1.7064008901998558E-002   0.00000000    
 -0.14461794361793612       -2.4073586150208215E-002   0.00000000    
 -0.13524123976433189       -3.0751639395211857E-002   0.00000000    
 -0.12373919780846082       -3.6954332382603337E-002   0.00000000    
 -0.11012576875785660       -4.2606064180471158E-002   0.00000000    
  -9.4760321618461332E-002  -4.7559185637845086E-002   0.00000000    
  -7.7759015107350518E-002  -5.1773472242282612E-002   0.00000000    
  -5.9509046815817403E-002  -5.5110075717910947E-002   0.00000000    
  -4.0223338686822985E-002  -5.7570178948326917E-002   0.00000000    
  -2.0287937815209742E-002  -5.9036506852299900E-002   0.00000000    
   2.0576892705439544E-006  -5.9553485407314546E-002   0.00000000    
   2.0292076650488124E-002  -5.9036462898190832E-002   0.00000000    
   4.0227425751306098E-002  -5.7570090058223958E-002   0.00000000    
   5.9513128296925968E-002  -5.5109943577902769E-002   0.00000000    
   7.7763017027246389E-002  -5.1773293990327617E-002   0.00000000    
   9.4764288066213162E-002  -4.7558964735041745E-002   0.00000000    
  0.11012962804813872       -4.2605796017456399E-002   0.00000000    
  0.12374299057409734       -3.6954022219231775E-002   0.00000000    
  0.13524489791762442       -3.0751281391107357E-002   0.00000000    
  0.14462150365383764       -2.4073187170440321E-002   0.00000000    
  0.15156574288646293       -1.7063562303366014E-002   0.00000000    
  0.15616251602300232       -9.8245459765636534E-003   0.00000000    
  0.15817533056153435       -2.4853063220045485E-003   0.00000000    
  0.15777689702560843        4.8354853172734059E-003   0.00000000    
  0.15481230245834124        1.2031332388187510E-002   0.00000000    
  0.14952577489836189        1.8976621906900637E-002   0.00000000    
  0.14184824965883469        2.5592357537117579E-002   0.00000000    
  0.13207615160440866        3.1754111845416391E-002   0.00000000    
  0.12022497213225221        3.7412275271134450E-002   0.00000000    
  0.10662306415546581        4.2449827711958280E-002   0.00000000    
   9.1365077768556527E-002   4.6846153165093732E-002   0.00000000    
   7.4791626819336404E-002   5.0496070940412439E-002   0.00000000    
   5.7068334637866584E-002   5.3406116031935257E-002   0.00000000    
   3.8529931345965274E-002   5.5486067805264057E-002   0.00000000    
   1.9402959950467657E-002   5.6767101836102285E-002   0.00000000    
   0.0000000000000000        5.7176375051252205E-002   0.00000000    
   0.0000000000000000        7.6919212311359869E-002   0.00000000    
  -1.9904445160909758E-002   7.6331013086881810E-002   0.00000000    
  -3.9507635931752952E-002   7.4651668059618911E-002   0.00000000    
  -5.8552780164517169E-002   7.1823437115228719E-002   0.00000000    
  -7.6707423676329323E-002   6.7956077233309334E-002   0.00000000    
  -9.3771139101900672E-002   6.3022753396038134E-002   0.00000000    
 -0.10939529448381026        5.7154837799682445E-002   0.00000000    
 -0.12344659791109530        5.0360016496418795E-002   0.00000000    
 -0.13557735086435982        4.2787881150333364E-002   0.00000000    
 -0.14573087981037455        3.4483886249249425E-002   0.00000000    
 -0.15357963867736696        2.5611094337681981E-002   0.00000000    
 -0.15915107618845517        1.6254654351111959E-002   0.00000000    
 -0.16215860441154836        6.5841669837735893E-003   0.00000000    
 -0.16271806685969759       -3.2760824196138051E-003   0.00000000    
 -0.16060501088329776       -1.3159576370276376E-002   0.00000000    
 -0.15602306179790962       -2.2907047955221367E-002   0.00000000    
 -0.14882951698604360       -3.2367224749966506E-002   0.00000000    
 -0.13930861645139772       -4.1354337815608821E-002   0.00000000    
 -0.12741498378218472       -4.9746041347884740E-002   0.00000000    
 -0.11349862265105236       -5.7342878436522589E-002   0.00000000    
  -9.7620404262274474E-002  -6.4064770053740144E-002   0.00000000    
  -8.0173541997554498E-002  -6.9714789961567297E-002   0.00000000    
  -6.1325234020732151E-002  -7.4265767699544849E-002   0.00000000    
  -4.1483094225748959E-002  -7.7541068459464332E-002   0.00000000    
  -2.0910730435086913E-002  -7.9572115609999744E-002   0.00000000    
   2.0283664823748651E-006  -8.0219364608802038E-002   0.00000000    
   2.0914749283613098E-002  -7.9572057228218224E-002   0.00000000    
   4.1487123637039304E-002  -7.7540952788957701E-002   0.00000000    
   6.1329198723109553E-002  -7.4265592047664905E-002   0.00000000    
   8.0177488926555268E-002  -6.9714557886834824E-002   0.00000000    
   9.7624259863722931E-002  -6.4064476174012841E-002   0.00000000    
  0.11350243080670565       -5.7342528647092585E-002   0.00000000    
  0.12741867397207735       -4.9745628320499863E-002   0.00000000    
  0.13931222844673996       -4.1353869868535835E-002   0.00000000    
  0.14883298451629234       -3.2366693130643498E-002   0.00000000    
  0.15602641971331579       -2.2906463082078183E-002   0.00000000    
  0.16060819820923658       -1.3158928994478783E-002   0.00000000    
  0.16272111366378045       -3.2753851172048301E-003   0.00000000    
  0.16216145611559790        6.5849235289354748E-003   0.00000000    
  0.15915375775433352        1.6255455780743437E-002   0.00000000    
  0.15358210279077114        2.5611949863593622E-002   0.00000000    
  0.14573314667640905        3.4484780081448091E-002   0.00000000    
  0.13557938125058974        4.2788822066605031E-002   0.00000000    
  0.12344840749700123        5.0360987841748854E-002   0.00000000    
  0.10939685249106311        5.7155847807669850E-002   0.00000000    
   9.3772457067668999E-002   6.3023784787856169E-002   0.00000000    
   7.6708479415556752E-002   6.7957137916738838E-002   0.00000000    
   5.8553581172543695E-002   7.1824509634269715E-002   0.00000000    
   3.9508168962434698E-002   7.4652759915179778E-002   0.00000000    
   1.9904713914585596E-002   7.6332106460004046E-002   0.00000000    
   0.0000000000000000        7.6920314601952880E-002   0.00000000    
   0.0000000000000000        9.7190686607212431E-002   0.00000000    
  -2.0534579028573998E-002   9.6499771536706094E-002   0.00000000    
  -4.0782881369973260E-002   9.4335611233079056E-002   0.00000000    
  -6.0418764784682610E-002   9.0821730065712078E-002   0.00000000    
  -7.9207905836725906E-002   8.5902777189875698E-002   0.00000000    
  -9.6797886500899502E-002   7.9730957805460898E-002   0.00000000    
 -0.11301744483872372        7.2291555171372160E-002   0.00000000    
 -0.12750357654731778        6.3761942226927340E-002   0.00000000    
 -0.14015840660550952        5.4172746112016355E-002   0.00000000    
 -0.15062654154809052        4.3721892739825317E-002   0.00000000    
 -0.15889268148647254        3.2489193874947919E-002   0.00000000    
 -0.16462969950778297        2.0686217437169627E-002   0.00000000    
 -0.16791187427502313        8.4435136012215584E-003   0.00000000    
 -0.16846270785841896       -4.0239264298784216E-003   0.00000000    
 -0.16644916382896177       -1.6537126182130928E-002   0.00000000    
 -0.16166783176788568       -2.8891573240808748E-002   0.00000000    
 -0.15437548108116525       -4.0867389295246463E-002   0.00000000    
 -0.14446189928368230       -5.2287450058129785E-002   0.00000000    
 -0.13226290396634291       -6.2904351892720645E-002   0.00000000    
 -0.11777626102475387       -7.2586366869662897E-002   0.00000000    
 -0.10139724006548054       -8.1077316158418955E-002   0.00000000    
  -8.3238075725850222E-002  -8.8307065730252585E-002   0.00000000    
  -6.3725674088758844E-002  -9.4032997016582603E-002   0.00000000    
  -4.3082735723229550E-002  -9.8257712824179846E-002   0.00000000    
  -2.1734220667704949E-002 -0.10077514571822364        0.00000000    
   1.9540721574842718E-006 -0.10166406368557793        0.00000000    
   2.1738154336771377E-002 -0.10077507497670828        0.00000000    
   4.3086618652762886E-002  -9.8257569336668002E-002   0.00000000    
   6.3729556330217027E-002  -9.4032783784657251E-002   0.00000000    
   8.3241882012942497E-002  -8.8306777507835790E-002   0.00000000    
  0.10140101799547876       -8.1076958741652522E-002   0.00000000    
  0.11777993772032597       -7.2585931937045309E-002   0.00000000    
  0.13226652298143590       -6.2903848362193274E-002   0.00000000    
  0.14446539137658221       -5.2286867497432145E-002   0.00000000    
  0.15437888483152254       -4.0866739481809855E-002   0.00000000    
  0.16167108284532408       -2.8890844273976677E-002   0.00000000    
  0.16645229549210486       -1.6536332896147157E-002   0.00000000    
  0.16846566166310467       -4.0230566572841391E-003   0.00000000    
  0.16791467819802122        8.4444426580400200E-003   0.00000000    
  0.16463230225601469        2.0687217668156115E-002   0.00000000    
  0.15889510586405434        3.2490246422756469E-002   0.00000000    
  0.15062874396943143        4.3723008753826162E-002   0.00000000    
  0.14016040506801195        5.4173905285261663E-002   0.00000000    
  0.12750533592381091        6.3763155201718449E-002   0.00000000    
  0.11301897879799361        7.2292800545910765E-002   0.00000000    
   9.6799168559007484E-002   7.9732245773486490E-002   0.00000000    
   7.9208945458915644E-002   8.5904085959693899E-002   0.00000000    
   6.0419544282669428E-002   9.0823069353889924E-002   0.00000000    
   4.0783406308153532E-002   9.4336958856790623E-002   0.00000000    
   2.0534840549707306E-002   9.6501136835859008E-002   0.00000000    
   0.0000000000000000        9.7192047246717372E-002   0.00000000    
   0.0000000000000000       0.11821736109290670        0.00000000    
  -2.1311478867747039E-002  0.11732030176786327        0.00000000    
  -4.2307530507664504E-002  0.11476058178772246        0.00000000    
  -6.2720673646852965E-002  0.11044693276906865        0.00000000    
  -8.2199614512979136E-002  0.10454680306170135        0.00000000    
 -0.10053587286543474        9.7014317411184936E-002   0.00000000    
 -0.11735622378635424        8.8049251210272905E-002   0.00000000    
 -0.13252181496216825        7.7657115175896449E-002   0.00000000    
 -0.14565407511371245        6.6065809378211396E-002   0.00000000    
 -0.15669406349773360        5.3338098451042482E-002   0.00000000    
 -0.16527755982154707        3.9723769962211511E-002   0.00000000    
 -0.17143479913380935        2.5347043811739651E-002   0.00000000    
 -0.17483855309402810        1.0469760958946349E-002   0.00000000    
 -0.17561490724755538       -4.7218414841567755E-003   0.00000000    
 -0.17349812130141473       -1.9968396661153427E-002   0.00000000    
 -0.16871187201580248       -3.5026740108106386E-002   0.00000000    
 -0.16107609689969124       -4.9659204347474312E-002   0.00000000    
 -0.15090624555892579       -6.3577924677514330E-002   0.00000000    
 -0.13812869019322627       -7.6589284592410253E-002   0.00000000    
 -0.12313521206156830       -8.8380412241571935E-002   0.00000000    
 -0.10597231790999505       -9.8824042977973314E-002   0.00000000    
  -8.7082516955277925E-002 -0.10760816156682058        0.00000000    
  -6.6635763234332498E-002 -0.11468991395715328        0.00000000    
  -4.5091175846112698E-002 -0.11978717923467834        0.00000000    
  -2.2732975587129403E-002 -0.12295125224896934        0.00000000    
   1.8972417330574355E-006 -0.12395786241131626        0.00000000    
   2.2736731439121367E-002 -0.12295116840077969        0.00000000    
   4.5094946773842716E-002 -0.11978701318998088        0.00000000    
   6.6639472621342760E-002 -0.11468966105364925        0.00000000    
   8.7086216536338593E-002 -0.10760782725558703        0.00000000    
  0.10597593256753622       -9.8823618369422217E-002   0.00000000    
  0.12313878972875934       -8.8379906275868933E-002   0.00000000    
  0.13813215880075408       -7.6588685354819372E-002   0.00000000    
  0.15090964797727802       -6.3577244712405417E-002   0.00000000    
  0.16107936535048822       -4.9658429628325493E-002   0.00000000    
  0.16871504364695003       -3.5025886554301805E-002   0.00000000    
  0.17350113396504047       -1.9967449580280929E-002   0.00000000    
  0.17561779230449617       -4.7208200411836361E-003   0.00000000    
  0.17484125507565856        1.0470871302445695E-002   0.00000000    
  0.17143734368846875        2.5348221357914938E-002   0.00000000    
  0.16527989913098654        3.9725028810779384E-002   0.00000000    
  0.15669621813829060        5.3339414789544792E-002   0.00000000    
  0.14565600550819588        6.6067196431960254E-002   0.00000000    
  0.13252353698367939        7.7658547729306165E-002   0.00000000    
  0.11735770656450374        8.8050741666884119E-002   0.00000000    
  0.10053712800477276        9.7015839837253121E-002   0.00000000    
   8.2200620003630903E-002  0.10454836945819884        0.00000000    
   6.2721436946971187E-002  0.11044851674544511        0.00000000    
   4.2308038355820997E-002  0.11476219473513025        0.00000000    
   2.1311734994439117E-002  0.11732191688196977        0.00000000    
   0.0000000000000000       0.11821898956541696        0.00000000    
   0.0000000000000000       0.14002202036806785        0.00000000    
  -2.2209136174993909E-002  0.13903734267108386        0.00000000    
  -4.4118092683163634E-002  0.13594963411183492        0.00000000    
  -6.5382034339696485E-002  0.13093605029030927        0.00000000    
  -8.5756087948146278E-002  0.12391176489796345        0.00000000    
 -0.10486273701024379       0.11509334781518107        0.00000000    
 -0.12252276267132478       0.10445168194445965        0.00000000    
 -0.13834040855867119        9.2239005980125716E-002   0.00000000    
 -0.15221275637603002        7.8489610658436126E-002   0.00000000    
 -0.16374369819807211        6.3486311393356032E-002   0.00000000    
 -0.17291742023936438        4.7333858969490397E-002   0.00000000    
 -0.17935928768462092        3.0337145036057445E-002   0.00000000    
 -0.18315037170418755        1.2675580707331408E-002   0.00000000    
 -0.18396289599130614       -5.3376999131935681E-003   0.00000000    
 -0.18198124299145740       -2.3449894801839864E-002   0.00000000    
 -0.17695185636150323       -4.1359795617161431E-002   0.00000000    
 -0.16916230667914731       -5.8750391863136971E-002   0.00000000    
 -0.15845965930414263       -7.5358154203572100E-002   0.00000000    
 -0.14522476493273931       -9.0820423577575610E-002   0.00000000    
 -0.12942671544230488      -0.10493971973576199        0.00000000    
 -0.11151790143011442      -0.11733536287626151        0.00000000    
  -9.1601445700984954E-002 -0.12790201764331474        0.00000000    
  -7.0168036040154064E-002 -0.13627514081924297        0.00000000    
  -4.7453760185591130E-002 -0.14245973521058838        0.00000000    
  -2.3946105715029323E-002 -0.14614347073651521        0.00000000    
   1.7920926830355114E-006 -0.14744733430726442        0.00000000    
   2.3949718751984685E-002 -0.14614337710837363        0.00000000    
   4.7457324046075514E-002 -0.14245954484515932        0.00000000    
   7.0171607157938951E-002 -0.13627485795296815        0.00000000    
   9.1604947050911739E-002 -0.12790163372107544        0.00000000    
  0.11152138611245126      -0.11733488628750914        0.00000000    
  0.12943010868923277      -0.10493913732451247        0.00000000    
  0.14522811456813245       -9.0819748114223067E-002   0.00000000    
  0.15846289425864959       -7.5357369594154205E-002   0.00000000    
  0.16916546869245466       -5.8749514879421247E-002   0.00000000    
  0.17695487947321267       -4.1358808606647542E-002   0.00000000    
  0.18198416249887778       -2.3448818605735673E-002   0.00000000    
  0.18396565228051590       -5.3365167605082574E-003   0.00000000    
  0.18315299381689490        1.2676846593068745E-002   0.00000000    
  0.17936172340668882        3.0338510857671992E-002   0.00000000    
  0.17291969292474807        4.7335297824665827E-002   0.00000000    
  0.16374576381599393        6.3487839461678880E-002   0.00000000    
  0.15221463321085821        7.8491199011677712E-002   0.00000000    
  0.13834206130606039        9.2240669694552829E-002   0.00000000    
  0.12252420501594731       0.10445339088632938        0.00000000    
  0.10486394255230495       0.11509511619747587        0.00000000    
   8.5757066216040456E-002  0.12391356226123465        0.00000000    
   6.5382767803662561E-002  0.13093789029449754        0.00000000    
   4.4118586895271698E-002  0.13595148573539495        0.00000000    
   2.2209382367119054E-002  0.13903921885061812        0.00000000    
   0.0000000000000000       0.14002389009410712        0.00000000    
   0.0000000000000000       0.16286837524304851        0.00000000    
  -2.3245453899091720E-002  0.16164660133600109        0.00000000    
  -4.6158005399921494E-002  0.15816290690765364        0.00000000    
  -6.8457147261057102E-002  0.15228688433869750        0.00000000    
  -8.9767571791596668E-002  0.14424643227385842        0.00000000    
 -0.10987067954053149       0.13396946029046408        0.00000000    
 -0.12836066933756299       0.12172660790192226        0.00000000    
 -0.14509103950898389       0.10751311870163192        0.00000000    
 -0.15964078302930637        9.1638611809691337E-002   0.00000000    
 -0.17194688302912967        7.4175374151696158E-002   0.00000000    
 -0.18159295092080011        5.5465608133219810E-002   0.00000000    
 -0.18861150548756536        3.5666839355495389E-002   0.00000000    
 -0.19261560834741528        1.5142094633393229E-002   0.00000000    
 -0.19374406881002562       -5.8622082837864534E-003   0.00000000    
 -0.19166852514975177       -2.6981562389775990E-002   0.00000000    
 -0.18664011016121260       -4.7884909515285796E-002   0.00000000    