 <VTKFile type="UnstructuredGrid" version="0.1" byte_order="BigEndian">
 <UnstructuredGrid>
 <Piece NumberOfPoints="        2601 " NumberOfCells="        2500 ">
 <PointData Scalars="scalars">
 <DataArray type="Float32" NumberOfComponents="3" Name="Velocity" Format="ascii">
   0.0000000000000000        0.0000000000000000        0.00000000    
 -0.11297872539613787        0.0000000000000000        0.00000000    
 -0.22604941379193394        0.0000000000000000        0.00000000    
 -0.33810384601400673        0.0000000000000000        0.00000000    
 -0.45040035766301839        0.0000000000000000        0.00000000    
 -0.56049623830520612        0.0000000000000000        0.00000000    
 -0.67086020789417466        0.0000000000000000        0.00000000    
 -0.77746405285871256        0.0000000000000000        0.00000000    
 -0.88405844957773116        0.0000000000000000        0.00000000    
 -0.98465476186281131        0.0000000000000000        0.00000000    
  -1.0842475826901277        0.0000000000000000        0.00000000    
  -1.1744313787062344        0.0000000000000000        0.00000000    
  -1.2609453874289158        0.0000000000000000        0.00000000    
  -1.3326824090639369        0.0000000000000000        0.00000000    
  -1.3944686986002623        0.0000000000000000        0.00000000    
  -1.4333848973678118        0.0000000000000000        0.00000000    
  -1.4502304784770190        0.0000000000000000        0.00000000    
  -1.4345570330370905        0.0000000000000000        0.00000000    
  -1.3807166189988060        0.0000000000000000        0.00000000    
  -1.2888846333286355        0.0000000000000000        0.00000000    
  -1.1485658919163737        0.0000000000000000        0.00000000    
 -0.97553051423577497        0.0000000000000000        0.00000000    
 -0.75927687146094136        0.0000000000000000        0.00000000    
 -0.52411103827126859        0.0000000000000000        0.00000000    
 -0.26478335812117443        0.0000000000000000        0.00000000    
   4.7979964072992427E-005   0.0000000000000000        0.00000000    
  0.26487883609405505        0.0000000000000000        0.00000000    
  0.52420241730733130        0.0000000000000000        0.00000000    
  0.75936358277054006        0.0000000000000000        0.00000000    
  0.97560992199970675        0.0000000000000000        0.00000000    
   1.1486382996567059        0.0000000000000000        0.00000000    
   1.2889488531285440        0.0000000000000000        0.00000000    
   1.3807736178003049        0.0000000000000000        0.00000000    
   1.4346067820988508        0.0000000000000000        0.00000000    
   1.4502740077303622        0.0000000000000000        0.00000000    
   1.4334226982730909        0.0000000000000000        0.00000000    
   1.3945015020918428        0.0000000000000000        0.00000000    
   1.3327107845424810        0.0000000000000000        0.00000000    
   1.2609697896495182        0.0000000000000000        0.00000000    
   1.1744523163073763        0.0000000000000000        0.00000000    
   1.0842653642419773        0.0000000000000000        0.00000000    
  0.98466981179761737        0.0000000000000000        0.00000000    
  0.88407100565170738        0.0000000000000000        0.00000000    
  0.77747445587955277        0.0000000000000000        0.00000000    
  0.67086864460372819        0.0000000000000000        0.00000000    
  0.56050296538705557        0.0000000000000000        0.00000000    
  0.45040551249274718        0.0000000000000000        0.00000000    
  0.33810759956486536        0.0000000000000000        0.00000000    
  0.22605184978444037        0.0000000000000000        0.00000000    
  0.11297992916160977        0.0000000000000000        0.00000000    
   0.0000000000000000        0.0000000000000000        0.00000000    
   0.0000000000000000       0.11280034016119692        0.00000000    
 -0.11237282119952272       0.11255271062841489        0.00000000    
 -0.22424319883430222       0.11238985929949311        0.00000000    
 -0.33626851808373948       0.11169139528675853        0.00000000    
 -0.44670481153954811       0.11104291202328637        0.00000000    
 -0.55737939850976925       0.10972905617409318        0.00000000    
 -0.66511583767591254       0.10837285158099795        0.00000000    
 -0.77298523727693913       0.10610188941059426        0.00000000    
 -0.87606371547679085       0.10357247955648555        0.00000000    
 -0.97873233426402939        9.9693941849538253E-002   0.00000000    
  -1.0738838892349076        9.5051920916588442E-002   0.00000000    
  -1.1670709891536728        8.8320456868825017E-002   0.00000000    
  -1.2485398721069898        7.9663911995905293E-002   0.00000000    
  -1.3241873453833830        6.7722053281208880E-002   0.00000000    
  -1.3815723941991462        5.1450749032534902E-002   0.00000000    
  -1.4245633982810979        3.0457909082041983E-002   0.00000000    
  -1.4400257307031252        1.8514511044502248E-003   0.00000000    
  -1.4261528977160911       -3.1396293072721293E-002   0.00000000    
  -1.3758454076732416       -7.2750185333041714E-002   0.00000000    
  -1.2803831148010074      -0.11454267795629615        0.00000000    
  -1.1479017654532868      -0.15825600924696903        0.00000000    
 -0.96651223926913732      -0.19616749984900658        0.00000000    
 -0.75955965765475431      -0.22703733986454092        0.00000000    
 -0.51746251837290880      -0.25022425358458744        0.00000000    
 -0.26479656639643778      -0.26176800534999545        0.00000000    
   4.8357329068502188E-005 -0.26790688518009453        0.00000000    
  0.26489137528898127      -0.26176561762901723        0.00000000    
  0.51755453396000106      -0.25021974906251820        0.00000000    
  0.75964559924317965      -0.22703110266051216        0.00000000    
  0.96659196572390971      -0.19616021837221967        0.00000000    
   1.1479733460058383      -0.15824814479635246        0.00000000    
   1.2804473014153159      -0.11453496052633315        0.00000000    
   1.3759017085794147       -7.2742796054547532E-002   0.00000000    
   1.4262024162345435       -3.1389650221697901E-002   0.00000000    
   1.4400688155883263        1.8574616971226087E-003   0.00000000    
   1.4246009303337457        3.0463179672047452E-002   0.00000000    
   1.3816049502175294        5.1455451892531812E-002   0.00000000    
   1.3242154744166761        6.7726205421364497E-002   0.00000000    
   1.2485641212089034        7.9667613047094132E-002   0.00000000    
   1.1670917115875594        8.8323747107125761E-002   0.00000000    
   1.0739015530125913        9.5054845385790426E-002   0.00000000    
  0.97874720435150131        9.9696542689581294E-002   0.00000000    
  0.87607617540085836       0.10357478274267123        0.00000000    
  0.77299549885928942       0.10610393762124302        0.00000000    
  0.66512420024612662       0.10837466869575851        0.00000000    
  0.55738602491784073       0.10973068485115520        0.00000000    
  0.44670991578681246       0.11104437776113152        0.00000000    
  0.33627221134896729       0.11169274181179419        0.00000000    
  0.22424560908053226       0.11239111335378206        0.00000000    
  0.11237400517364783       0.11255391507523685        0.00000000    
   0.0000000000000000       0.11280152345594394        0.00000000    
   0.0000000000000000       0.22382237262814619        0.00000000    
 -0.10999575028661994       0.22390069235253887        0.00000000    
 -0.22004205146740274       0.22295999862327454        0.00000000    
 -0.32903784612719383       0.22214381170066444        0.00000000    
 -0.43815288638763811       0.22014326970245243        0.00000000    
 -0.54500038921977967       0.21815222784276908        0.00000000    
 -0.65192388682875679       0.21461105369805503        0.00000000    
 -0.75499822856763255       0.21080886432963100        0.00000000    
 -0.85785770496225577       0.20480489112998507        0.00000000    
 -0.95465008602051316       0.19792396011120300        0.00000000    
  -1.0504101248882609       0.18773492116691665        0.00000000    
  -1.1368380773741913       0.17525393097375802        0.00000000    
  -1.2202623500275176       0.15762500832250426        0.00000000    
  -1.2893961183235190       0.13454360936787679        0.00000000    
  -1.3509277126466674       0.10354723782505454        0.00000000    
  -1.3905690636628649        6.0995171015395290E-002   0.00000000    
  -1.4119421977244448        8.1510406105728614E-003   0.00000000    
  -1.4010721465524638       -6.2437391215568558E-002   0.00000000    
  -1.3533718161512727      -0.13971554283321239        0.00000000    
  -1.2664421729681996      -0.22996790479124538        0.00000000    
  -1.1277692301043007      -0.31398373139172964        0.00000000    
 -0.95728324375045637      -0.39231396150464848        0.00000000    
 -0.74078148431279089      -0.45434389539739789        0.00000000    
 -0.51047413032133748      -0.49532087889835436        0.00000000    
 -0.25633417514921625      -0.52347597657371270        0.00000000    
   4.8055865450997935E-005 -0.52742476240559322        0.00000000    
  0.25642974255791334      -0.52347113876436246        0.00000000    
  0.51056531243824155      -0.49531164586701731        0.00000000    
  0.74086765992059356      -0.45433130619342088        0.00000000    
  0.95736161953985699      -0.39229901707455489        0.00000000    
   1.1278402542529469      -0.31396803234945053        0.00000000    
   1.2665047395959752      -0.22995217049211508        0.00000000    
   1.3534271014891113      -0.13970100342364483        0.00000000    
   1.4011203248878443       -6.2424009103480664E-002   0.00000000    
   1.4119843134919354        8.1628081454479945E-003   0.00000000    
   1.3906057123910396        6.1005704537101559E-002   0.00000000    
   1.3509595050550793       0.10355651010942302        0.00000000    
   1.2894236452600218       0.13455188454269815        0.00000000    
   1.2202859813272491       0.15763236190917651        0.00000000    
   1.1368583251777400       0.17526047884281062        0.00000000    
   1.0504272722170647       0.18774074713829550        0.00000000    
  0.95466456251092291       0.19792912397968712        0.00000000    
  0.85786974575667574       0.20480947714909592        0.00000000    
  0.75500817712398971       0.21081292028913459        0.00000000    
  0.65193193244287473       0.21461466502030593        0.00000000    
  0.54500678919109335       0.21815544411927656        0.00000000    
  0.43815777951238138       0.22014617685019836        0.00000000    
  0.32904140278770150       0.22214646426405271        0.00000000    
  0.22004435671037162       0.22296248107771605        0.00000000    
  0.10999688867839388       0.22390306152448236        0.00000000    
   0.0000000000000000       0.22382471356564090        0.00000000    
   0.0000000000000000       0.33247985368762573        0.00000000    
 -0.10647994590654467       0.33172028890135341        0.00000000    
 -0.21242506322349194       0.33113320188549927        0.00000000    
 -0.31836337232335671       0.32890609240364577        0.00000000    
 -0.42261593838049499       0.32674997521502308        0.00000000    
 -0.52678926900160039       0.32256773338545752        0.00000000    
 -0.62786983303525123       0.31820098687673892        0.00000000    
 -0.72865275696260245       0.31107757024661381        0.00000000    
 -0.82446627899634095       0.30321055629919691        0.00000000    
 -0.91950153092977449       0.29134729533675657        0.00000000    
  -1.0069373677451627       0.27750882790919562        0.00000000    
  -1.0926550505327361       0.25762701861112969        0.00000000    
  -1.1669884919297748       0.23301099209640502        0.00000000    
  -1.2377648786896920       0.19906912862705917        0.00000000    
  -1.2915646006218922       0.15435437967341725        0.00000000    
  -1.3375114622729882        9.5777575187488570E-002   0.00000000    
  -1.3576726029133299        1.4904238182185992E-002   0.00000000    
  -1.3561242797901478       -8.1607648335802030E-002   0.00000000    
  -1.3167601303064727      -0.20760846288109419        0.00000000    
  -1.2301435195608377      -0.33561994592628147        0.00000000    
  -1.1043722948107881      -0.47277458293873031        0.00000000    
 -0.92104934758250256      -0.58733077337976880        0.00000000    
 -0.72002386941489627      -0.67685306934148304        0.00000000    
 -0.48230167967154181      -0.74083999718604798        0.00000000    
 -0.24627351312826462      -0.76812373994843908        0.00000000    
   4.8432532345064629E-005 -0.78547993506778813        0.00000000    
  0.24636829209994596      -0.76811627172414776        0.00000000    
  0.48239328254079317      -0.74082583317406259        0.00000000    
  0.72010857296825126      -0.67683350529239461        0.00000000    
  0.92112708571888491      -0.58730803855726399        0.00000000    
   1.1044409890614251      -0.47275027876086817        0.00000000    
   1.2302043966093104      -0.33559654203728967        0.00000000    
   1.3168130789255748      -0.20758638334020202        0.00000000    
   1.3561706469157477       -8.1588117856790598E-002   0.00000000    
   1.3577130771146453        1.4921812844330742E-002   0.00000000    
   1.3375467049531551        9.5793000144488744E-002   0.00000000    
   1.2915952802265591       0.15436817991980264        0.00000000    
   1.2377913083303405       0.19908139127778876        0.00000000    
   1.1670112373649975       0.23302193805140928        0.00000000    
   1.0926743833529258       0.25763677022503279        0.00000000    
   1.0069537673142792       0.27751748386357095        0.00000000    
  0.91951524813375907       0.29135498242773178        0.00000000    
  0.82447770552068034       0.30321734547346629        0.00000000    
  0.72866210842846546       0.31108359034945926        0.00000000    
  0.62787741142350606       0.31820631007749633        0.00000000    
  0.52679524174462666       0.32257248907345348        0.00000000    
  0.42262051867680728       0.32675424224655369        0.00000000    
  0.31836667410510872       0.32891000006401006        0.00000000    
  0.21242721229394299       0.33113683337378319        0.00000000    
  0.10648099925196454       0.33172377161764721        0.00000000    
   0.0000000000000000       0.33248327281993523        0.00000000    
   0.0000000000000000       0.43599426600361052        0.00000000    
 -0.10138380940249128       0.43607095256372724        0.00000000    
 -0.20270158008012995       0.43404674627163287        0.00000000    
 -0.30288123605716427       0.43211183314493662        0.00000000    
 -0.40282958249983214       0.42774646513265591        0.00000000    
 -0.50033624780871655       0.42325255756522934        0.00000000    
 -0.59734698337242897       0.41560877715583072        0.00000000    
 -0.69026155576192449       0.40736859119026098        0.00000000    
 -0.78225694692674430       0.39472975850169234        0.00000000    
 -0.86792777580674929       0.38053548398728004        0.00000000    
 -0.95207443520386614       0.35990443856446191        0.00000000    
  -1.0268207210719829       0.33569667977052758        0.00000000    
  -1.0993362459156997       0.30179159101080816        0.00000000    
  -1.1581694805249412       0.25989944457503072        0.00000000    
  -1.2141218682418302       0.20327745488498342        0.00000000    
  -1.2501627455813207       0.12884351841348482        0.00000000    
  -1.2813603340643349        3.3198289285601576E-002   0.00000000    
  -1.2814979623703562      -0.10131113668622770        0.00000000    
  -1.2544605116572702      -0.25430533070420575        0.00000000    
  -1.1822630082795316      -0.44773596617216765        0.00000000    
  -1.0454814263360386      -0.62321015045938188        0.00000000    
 -0.88051269701646817      -0.78518568919148446        0.00000000    
 -0.65931133023161848      -0.90122380386464829        0.00000000    
 -0.44826844312218361      -0.96523316675116466        0.00000000    
 -0.21839918355766894       -1.0096268195712332        0.00000000    
   4.7871050826664285E-005  -1.0087446869843217        0.00000000    
  0.21849425569228989       -1.0096165952857794        0.00000000    
  0.44835859337381456      -0.96521366081470972        0.00000000    
  0.65939574407051471      -0.90119694600908140        0.00000000    
  0.88058780754318389      -0.78515397944506427        0.00000000    
   1.0455482114985506      -0.62317745195264151        0.00000000    
   1.1823205646071624      -0.44770391057319359        0.00000000    
   1.2545107866811842      -0.25427669313757228        0.00000000    
   1.2815418594245356      -0.10128520476769960        0.00000000    
   1.2813986687234638        3.3220917829785743E-002   0.00000000    
   1.2501963789497144       0.12886382230239085        0.00000000    
   1.2141509151965919       0.20329552569059525        0.00000000    
   1.1581945897632784       0.25991562434903603        0.00000000    
   1.0993576169331276       0.30180604227081786        0.00000000    
   1.0268388966766091       0.33570953410930843        0.00000000    
  0.95208966764349379       0.35991586821197330        0.00000000    
  0.86794051171025810       0.38054557628840380        0.00000000    
  0.78226742754490575       0.39473868843275306        0.00000000    
  0.69027013152626382       0.40737645045062915        0.00000000    
  0.59735385215185477       0.41561574126354045        0.00000000    
  0.50034166589724427       0.42325872868439923        0.00000000    
  0.40283369336437003       0.42775201640567334        0.00000000    
  0.30288420642214831       0.43211687557991485        0.00000000    
  0.20270349586453210       0.43405145027914638        0.00000000    
  0.10138475309450416       0.43607543058018639        0.00000000    
   0.0000000000000000       0.43599868687515364        0.00000000    
   0.0000000000000000       0.53505847973257448        0.00000000    
  -9.5352856842446640E-002  0.53374466500691720        0.00000000    
 -0.19012140860595442       0.53246061629122421        0.00000000    
 -0.28458973526167181       0.52834720442588645        0.00000000    
 -0.37722331156110833       0.52409427556299770        0.00000000    
 -0.46918348567026791       0.51637284271404904        0.00000000    
 -0.55780361780066345       0.50812061642487782        0.00000000    
 -0.64524417726071093       0.49521313602418726        0.00000000    
 -0.72738555205376698       0.48102323278887682        0.00000000    
 -0.80770172007981522       0.46023025331053985        0.00000000    
 -0.88007090210628081       0.43672675871734101        0.00000000    
 -0.94999515548125690       0.40354613802026784        0.00000000    
  -1.0083600522802307       0.36482379534149384        0.00000000    
  -1.0643069260163218       0.31164857767902004        0.00000000    
  -1.1037251966129182       0.24690021091650577        0.00000000    
  -1.1429416961687831       0.16047935489944157        0.00000000    
  -1.1581263451141832        4.7945905299955870E-002   0.00000000    
  -1.1786145121966602       -9.5431760209690894E-002   0.00000000    
  -1.1578080049442041      -0.30802747969611394        0.00000000    
  -1.0929874408839932      -0.53103071312003702        0.00000000    
 -0.97811968981326858      -0.79156359540706178        0.00000000    
 -0.77555086334216794      -0.98436865873042467        0.00000000    
 -0.58774493186039578       -1.1110470275670263        0.00000000    
 -0.36615900885591063       -1.1880376376594894        0.00000000    
 -0.18382792845397927       -1.1990215944356775        0.00000000    
   4.7376265743409613E-005  -1.2216711714131623        0.00000000    
  0.18392083609602314       -1.1990088552943117        0.00000000    
  0.36624877560838898       -1.1880125838041062        0.00000000    
  0.58782678853741521       -1.1110120711412796        0.00000000    
  0.77562473319614145      -0.98432775741549228        0.00000000    
  0.97818240448704252      -0.79152060792262990        0.00000000    
   1.0930417499309282      -0.53099131203368555        0.00000000    
   1.1578549047485440      -0.30799149706845796        0.00000000    
   1.1786554899312884       -9.5400873310239886E-002   0.00000000    
   1.1581627767134886        4.7973687395689794E-002   0.00000000    
   1.1429731722344423       0.16050416206317725        0.00000000    
   1.1037525311454139       0.24692250639616189        0.00000000    
   1.0643301547732920       0.31166857627284072        0.00000000    
   1.0083798149589707       0.36484163208289444        0.00000000    
  0.95001168593518193       0.40356203451718686        0.00000000    
  0.88008471747949035       0.43674080445448021        0.00000000    
  0.80771308748189874       0.46024267403121000        0.00000000    
  0.72739487633969180       0.48103413270393008        0.00000000    
  0.64525169014633077       0.49522274155663015        0.00000000    
  0.55780962026205549       0.50812905167166833        0.00000000    
  0.46918815295112365       0.51638032856752003        0.00000000    
  0.37722685026137770       0.52410094790828565        0.00000000    
  0.28459226045945585       0.52835327979258762        0.00000000    
  0.19012304105754366       0.53246623469577192        0.00000000    
   9.5353653344192157E-002  0.53375003667053489        0.00000000    
   0.0000000000000000       0.53506374715268601        0.00000000    
   0.0000000000000000       0.62615872177064646        0.00000000    
  -8.8091864021005259E-002  0.62609034368203353        0.00000000    
 -0.17595092659681097       0.62274375109130620        0.00000000    
 -0.26257580342141495       0.61915847262308243        0.00000000    
 -0.34845879045907108       0.61180076802512851        0.00000000    
 -0.43170745978054192       0.60387639182440123        0.00000000    
 -0.51358065987473123       0.59111159384072753        0.00000000    
 -0.59106757620185213       0.57715083007538137        0.00000000    
 -0.66637240553976052       0.55653293277166760        0.00000000    
 -0.73496284390906697       0.53362835175069734        0.00000000    
 -0.80045939479043304       0.50119557705868700        0.00000000    
 -0.85605451960742640       0.46459788485497355        0.00000000    
 -0.90795986193513989       0.41404346347157672        0.00000000    
 -0.94551586919488773       0.35593297065944718        0.00000000    
 -0.98052245024641782       0.27704183475997657        0.00000000    
 -0.99462462408429253       0.18365757468295546        0.00000000    
  -1.0134836824724909        5.8812543446256839E-002   0.00000000    
 -0.99966611213909762       -9.9626648569693804E-002   0.00000000    
  -1.0191127983609840      -0.30519128378260746        0.00000000    
 -0.97135519948276794      -0.64644396683302563        0.00000000    
 -0.82182670076868392      -0.94054549702049395        0.00000000    
 -0.65963960444479475       -1.2001416398461249        0.00000000    
 -0.41420115747593611       -1.3285173676887130        0.00000000    
 -0.26795945792845455       -1.3383939060344150        0.00000000    
 -0.12603790026234130       -1.3729169308666260        0.00000000    
   4.5081683441537383E-005  -1.3577331004226516        0.00000000    
  0.12612757011130210       -1.3729018533161823        0.00000000    
  0.26804574037311107       -1.3383646622938683        0.00000000    
  0.41428271272771389       -1.3284739638758079        0.00000000    
  0.65970940718022686       -1.2000894465771281        0.00000000    
  0.82188704830462922      -0.94049319110571361        0.00000000    
  0.97140502251855720      -0.64639495404771707        0.00000000    
   1.0191560557296588      -0.30515093794100878        0.00000000    
  0.99970558292308243       -9.9590416227577014E-002   0.00000000    
   1.0135175819278976        5.8845097565171138E-002   0.00000000    
  0.99465416310776511       0.18368692579119833        0.00000000    
  0.98054738566389354       0.27706833143611448        0.00000000    
  0.94553701490619924       0.35595666354056338        0.00000000    
  0.90797742631064393       0.41406465334158132        0.00000000    
  0.85606911938008667       0.46461662505302054        0.00000000    
  0.80047133165433160       0.50121215708607514        0.00000000    
  0.73497258941614640       0.53364287751111861        0.00000000    
  0.66638023334123453       0.55654568847065866        0.00000000    
  0.59107383520598500       0.57716196002356446        0.00000000    
  0.51358556103315745       0.59112137294364986        0.00000000    
  0.43171124785958093       0.60388498208367258        0.00000000    
  0.34846161026290989       0.61180843282234720        0.00000000    
  0.26257781058838853       0.61916538167919288        0.00000000    
  0.17595220526242891       0.62275015705594605        0.00000000    
   8.8092489604321186E-002  0.62609641681967632        0.00000000    
   0.0000000000000000       0.62616470980375394        0.00000000    
   0.0000000000000000       0.71122168682864451        0.00000000    
  -8.0187249033193686E-002  0.70930763126695029        0.00000000    
 -0.15975176324775134       0.70695118015813074        0.00000000    
 -0.23865895979336063       0.70048425528628733        0.00000000    
 -0.31561810092579606       0.69331825274764081        0.00000000    
 -0.39115982929236837       0.68115044089014576        0.00000000    
 -0.46317700805429551       0.66772906128993936        0.00000000    
 -0.53282050501816425       0.64766490860886561        0.00000000    
 -0.59690372295441851       0.62540803668601586        0.00000000    
 -0.65741322086372800       0.59385431207751860        0.00000000    
 -0.70958795079225689       0.55864202926267303        0.00000000    
 -0.75685959140112546       0.51001931974506531        0.00000000    
 -0.79185377307056926       0.45552267980376804        0.00000000    
 -0.82109431007073541       0.38125141202248791        0.00000000    
 -0.83207731672235263       0.29771410257388481        0.00000000    
 -0.83907889801174729       0.18409016455261368        0.00000000    
 -0.81712225915246206        5.5283486670772590E-002   0.00000000    
 -0.80418288868227539      -0.12285344549374262        0.00000000    
 -0.73389683412954199      -0.33280275712787427        0.00000000    
 -0.75824837021131686      -0.64223749765251825        0.00000000    
 -0.66110730936539464       -1.1914205298356035        0.00000000    
 -0.32293326043328446       -1.4496267458873637        0.00000000    
 -0.21716920076476368       -1.4302338500908101        0.00000000    
 -0.13093895222561416       -1.4691484060728848        0.00000000    
  -6.4571547275745794E-002  -1.4504504546357559        0.00000000    
   4.1024406751779704E-005  -1.4708941784173262        0.00000000    
   6.4653036605749725E-002  -1.4504343240845272        0.00000000    
  0.13101925874243822       -1.4691156451122713        0.00000000    
  0.21724647280255868       -1.4301862018242970        0.00000000    
  0.32300578972670912       -1.4495623018044410        0.00000000    
  0.66116185532694793       -1.1913530362005311        0.00000000    
  0.75829484830058280      -0.64218508020979126        0.00000000    
  0.73394097342507247      -0.33275691148035141        0.00000000    
  0.80421982885454057      -0.12281172724794667        0.00000000    
  0.81715430512349452        5.5321020417962725E-002   0.00000000    
  0.83910551773505726       0.18412432271387508        0.00000000    
  0.83209965675774578       0.29774467549302563        0.00000000    
  0.82111260289562826       0.38127886557903284        0.00000000    
  0.79186878579611220       0.45554697043559872        0.00000000    
  0.75687169450504166       0.51004083340761275        0.00000000    
  0.70959769767174075       0.55866085496083373        0.00000000    
  0.65742094349084801       0.59387080777825429        0.00000000    
  0.59690982184796193       0.62542236388592765        0.00000000    
  0.53282523489229672       0.64767740487480507        0.00000000    
  0.46318065076836573       0.66773991908289909        0.00000000    
  0.39116256073260969       0.68115997681453100        0.00000000    
  0.31562010721088640       0.69332666531209652        0.00000000    
  0.23866035056650625       0.70049184472591430        0.00000000    
  0.15975264412662854       0.70695814413685654        0.00000000    
   8.0187672473574320E-002  0.70931425691325611        0.00000000    
   0.0000000000000000       0.71122817137874716        0.00000000    
   0.0000000000000000       0.78630240253787809        0.00000000    
  -7.1500926119062322E-002  0.78591617077481368        0.00000000    
 -0.14259463677198930       0.78100194482215324        0.00000000    
 -0.21241440396019132       0.77516153437005564        0.00000000    
 -0.28095262295627321       0.76413941146913489        0.00000000    
 -0.34679029001741141       0.75170975678607777        0.00000000    
 -0.41029047079992376       0.73268818003870417        0.00000000    
 -0.46933172628917136       0.71139161993713296        0.00000000    
 -0.52467718502967742       0.68111107349643762        0.00000000    
 -0.57323134875478388       0.64721601226480807        0.00000000    
 -0.61633818011574715       0.60056295697646611        0.00000000    
 -0.64936993706183066       0.54840286209490552        0.00000000    
 -0.67484509061927722       0.47760953303031439        0.00000000    
 -0.68529533105141949       0.39885640552131940        0.00000000    
 -0.68613960865284140       0.29193744570599256        0.00000000    
 -0.66350341890859121       0.17423327921987503        0.00000000    