 <VTKFile type="UnstructuredGrid" version="0.1" byte_order="BigEndian">
 <UnstructuredGrid>
 <Piece NumberOfPoints="        2601 " NumberOfCells="        2500 ">
 <PointData Scalars="scalars">
 <DataArray type="Float32" NumberOfComponents="3" Name="Velocity" Format="ascii">
   0.0000000000000000        0.0000000000000000        0.00000000    
  -4.5465883135468205E-002   0.0000000000000000        0.00000000    
  -9.0310623033638460E-002   0.0000000000000000        0.00000000    
 -0.13392004056891479        0.0000000000000000        0.00000000    
 -0.17568431156453732        0.0000000000000000        0.00000000    
 -0.21501102505113157        0.0000000000000000        0.00000000    
 -0.25132647996598134        0.0000000000000000        0.00000000    
 -0.28407495491272122        0.0000000000000000        0.00000000    
 -0.31275196586847692        0.0000000000000000        0.00000000    
 -0.33685700869120438        0.0000000000000000        0.00000000    
 -0.35599584164560888        0.0000000000000000        0.00000000    
 -0.36974791825269898        0.0000000000000000        0.00000000    
 -0.37787484383863912        0.0000000000000000        0.00000000    
 -0.38006775282528027        0.0000000000000000        0.00000000    
 -0.37628751924666504        0.0000000000000000        0.00000000    
 -0.36637363766312980        0.0000000000000000        0.00000000    
 -0.35051791930423809        0.0000000000000000        0.00000000    
 -0.32874451630734303        0.0000000000000000        0.00000000    
 -0.30148581232597282        0.0000000000000000        0.00000000    
 -0.26897832135417044        0.0000000000000000        0.00000000    
 -0.23187487908675644        0.0000000000000000        0.00000000    
 -0.19063409411505844        0.0000000000000000        0.00000000    
 -0.14607753123434400        0.0000000000000000        0.00000000    
  -9.8869774673896654E-002   0.0000000000000000        0.00000000    
  -4.9923549653893048E-002   0.0000000000000000        0.00000000    
  -6.3937893894133567E-005   0.0000000000000000        0.00000000    
   4.9796166095474791E-002   0.0000000000000000        0.00000000    
   9.8743112973433536E-002   0.0000000000000000        0.00000000    
  0.14595255766153736        0.0000000000000000        0.00000000    
  0.19051102150120655        0.0000000000000000        0.00000000    
  0.23175462153677015        0.0000000000000000        0.00000000    
  0.26886106136595223        0.0000000000000000        0.00000000    
  0.30137238429366908        0.0000000000000000        0.00000000    
  0.32863506360833206        0.0000000000000000        0.00000000    
  0.35041317850637288        0.0000000000000000        0.00000000    
  0.36627371087679583        0.0000000000000000        0.00000000    
  0.37619303618979855        0.0000000000000000        0.00000000    
  0.37997877686553233        0.0000000000000000        0.00000000    
  0.37779189657109796        0.0000000000000000        0.00000000    
  0.36967103087242070        0.0000000000000000        0.00000000    
  0.35592543302914831        0.0000000000000000        0.00000000    
  0.33679308677849445        0.0000000000000000        0.00000000    
  0.31269485492465604        0.0000000000000000        0.00000000    
  0.28402464846400416        0.0000000000000000        0.00000000    
  0.25128321777345586        0.0000000000000000        0.00000000    
  0.21497479433728464        0.0000000000000000        0.00000000    
  0.17565527625311794        0.0000000000000000        0.00000000    
  0.13389818847765966        0.0000000000000000        0.00000000    
   9.0296049485189558E-002   0.0000000000000000        0.00000000    
   4.5458580713448077E-002   0.0000000000000000        0.00000000    
   0.0000000000000000        0.0000000000000000        0.00000000    
   0.0000000000000000        4.5675759733013500E-002   0.00000000    
  -4.5573945461756589E-002   4.5365527678188897E-002   0.00000000    
  -9.0528546366890408E-002   4.4435271858308922E-002   0.00000000    
 -0.13424534663660423        4.2892404519676998E-002   0.00000000    
 -0.17611984816940804        4.0747826343186147E-002   0.00000000    
 -0.21555542901454797        3.8015926009521403E-002   0.00000000    
 -0.25197640676934857        3.4721964296203521E-002   0.00000000    
 -0.28483671698852114        3.0888278053129572E-002   0.00000000    
 -0.31360537561514590        2.6558848200616297E-002   0.00000000    
 -0.33782428108899842        2.1766556197014501E-002   0.00000000    
 -0.35702817714915969        1.6577628306304586E-002   0.00000000    
 -0.37089133001009855        1.1039055991684484E-002   0.00000000    
 -0.37904232131168036        5.2403150474972637E-003   0.00000000    
 -0.38133414623003820       -7.5412770150239485E-004   0.00000000    
 -0.37752401599267116       -6.8347833772991369E-003   0.00000000    
 -0.36768350973308322       -1.2918152448151744E-002   0.00000000    
 -0.35173635543077147       -1.8883268879941451E-002   0.00000000    
 -0.32999549791231098       -2.4629540983312988E-002   0.00000000    
 -0.30258521166521091       -3.0037999212228546E-002   0.00000000    
 -0.27005569331129819       -3.4997560674720589E-002   0.00000000    
 -0.23275266819857618       -3.9407457776592276E-002   0.00000000    
 -0.19142715750684713       -4.3157389420326542E-002   0.00000000    
 -0.14664481257009954       -4.6180070293797511E-002   0.00000000    
  -9.9290617316554114E-002  -4.8380433710485872E-002   0.00000000    
  -5.0119846949599624E-002  -4.9735114055666101E-002   0.00000000    
  -6.3832060913899136E-005  -5.0179065072930989E-002   0.00000000    
   4.9992298808187542E-002  -4.9735722265546616E-002   0.00000000    
   9.9164167585780769E-002  -4.8381645769365843E-002   0.00000000    
  0.14651968456229286       -4.6181868085894758E-002   0.00000000    
  0.19130429749256908       -4.3159760581137512E-002   0.00000000    
  0.23263227490786875       -3.9410368403822102E-002   0.00000000    
  0.26993864524854250       -3.5000992837882682E-002   0.00000000    
  0.30247167181960116       -3.0041907222968674E-002   0.00000000    
  0.32988625402713617       -2.4633904267204642E-002   0.00000000    
  0.35163152912757611       -1.8888035080235340E-002   0.00000000    
  0.36758378440787687       -1.2923301238495543E-002   0.00000000    
  0.37742947242787689       -6.8402600780915991E-003   0.00000000    
  0.38124535888529482       -7.5991431918668022E-004   0.00000000    
  0.37895933526310893        5.2342716753734902E-003   0.00000000    
  0.37081461317888653        1.1032770257712628E-002   0.00000000    
  0.35695774664501778        1.6571148947812375E-002   0.00000000    
  0.33776050620742804        2.1759893227571121E-002   0.00000000    
  0.31354825480306403        2.6552046129984401E-002   0.00000000    
  0.28478652978948044        3.0881342013889184E-002   0.00000000    
  0.25193314166866021        3.4714933979107639E-002   0.00000000    
  0.21551928602282763        3.8008802737155810E-002   0.00000000    
  0.17609081345587491        4.0740645933076122E-002   0.00000000    
  0.13422354831897054        4.2885165311848064E-002   0.00000000    
   9.0513973741894821E-002   4.4428006828790008E-002   0.00000000    
   4.5566661123424820E-002   4.5358233292704310E-002   0.00000000    
   0.0000000000000000        4.5668467356226067E-002   0.00000000    
   0.0000000000000000        9.1568207589601977E-002   0.00000000    
  -4.5897609695113646E-002   9.0946031999782698E-002   0.00000000    
  -9.1174242476919479E-002   8.9087398163834305E-002   0.00000000    
 -0.13521776028218677        8.6001993066374766E-002   0.00000000    
 -0.17741528763537917        8.1711663219409661E-002   0.00000000    
 -0.21717668278190286        7.6250461344250287E-002   0.00000000    
 -0.25392113721362164        6.9654256977203857E-002   0.00000000    
 -0.28709364049349601        6.1990194244543537E-002   0.00000000    
 -0.31617851526151430        5.3311860253631112E-002   0.00000000    
 -0.34067272252128433        4.3728051157997223E-002   0.00000000    
 -0.36016787955293988        3.3316580084190209E-002   0.00000000    
 -0.37423646174609032        2.2233232264268030E-002   0.00000000    
 -0.38262552779735981        1.0587588412892788E-002   0.00000000    
 -0.38501460008534982       -1.4191122684936858E-003   0.00000000    
 -0.38135334572154928       -1.3639792568708344E-002   0.00000000    
 -0.37146629341381993       -2.5839311673307896E-002   0.00000000    
 -0.35554148319116163       -3.7832684769372266E-002   0.00000000    
 -0.33358761127246644       -4.9373465766369945E-002   0.00000000    
 -0.30604374536116563       -6.0246838502838150E-002   0.00000000    
 -0.27313445074296977       -7.0226146827285979E-002   0.00000000    
 -0.23553019599894287       -7.9084764519446654E-002   0.00000000    
 -0.19368524960202829       -8.6649153232278675E-002   0.00000000    
 -0.14844704235716943       -9.2707472538156060E-002   0.00000000    
 -0.10048630098111457       -9.7166582239678195E-002   0.00000000    
  -5.0744530380081525E-002  -9.9860120852311898E-002   0.00000000    
  -6.3892427999317808E-005 -0.10078932556692141        0.00000000    
   5.0617243041922964E-002  -9.9861342560425975E-002   0.00000000    
  0.10035974142869580       -9.7169006996987647E-002   0.00000000    
  0.14832218642754344       -9.2711082977824058E-002   0.00000000    
  0.19356230987185985       -8.6653895939045586E-002   0.00000000    
  0.23541009387932565       -7.9090607935340299E-002   0.00000000    
  0.27301736669941762       -7.0233009506583940E-002   0.00000000    
  0.30593051753803857       -6.0254680435757109E-002   0.00000000    
  0.33347837960061799       -4.9382187240803746E-002   0.00000000    
  0.35543698466442530       -3.7842243507187574E-002   0.00000000    
  0.37136662516872443       -2.5849599186971592E-002   0.00000000    
  0.38125913492155172       -1.3650769752871224E-002   0.00000000    
  0.38492590469538079       -1.4306700342773895E-003   0.00000000    
  0.38254286493719575        1.0575482361526858E-002   0.00000000    
  0.37415985753803704        2.2220681338523299E-002   0.00000000    
  0.36009774767287606        3.3303607260887831E-002   0.00000000    
  0.34060906582578659        4.3714750844552848E-002   0.00000000    
  0.31612165324652475        5.3298246775346891E-002   0.00000000    
  0.28704356232346045        6.1976352153184762E-002   0.00000000    
  0.25387807819798369        6.9640191457713552E-002   0.00000000    
  0.21714062719560417        7.6236247734120077E-002   0.00000000    
  0.17738639605483733        8.1697300861277536E-002   0.00000000    
  0.13519601823762045        8.5987549872792016E-002   0.00000000    
   9.1159743166638010E-002   8.9072868691250001E-002   0.00000000    
   4.5890344748656824E-002   9.0931479404949528E-002   0.00000000    
   0.0000000000000000        9.1553624135450706E-002   0.00000000    
   0.0000000000000000       0.13788471017709911        0.00000000    
  -4.6427009003197725E-002  0.13695548342174041        0.00000000    
  -9.2237579205377715E-002  0.13416648495279587        0.00000000    
 -0.13681088592103843       0.12954106586094261        0.00000000    
 -0.17954757876942989       0.12310814544082987        0.00000000    
 -0.21984112389283350       0.11491025388388713        0.00000000    
 -0.25711974548361244       0.10501887455230487        0.00000000    
 -0.29081890945113981        9.3498577538159017E-002   0.00000000    
 -0.32040670228751522        8.0477477658198876E-002   0.00000000    
 -0.34539894914229841        6.6050220361339285E-002   0.00000000    
 -0.36532152289365305        5.0413473531450342E-002   0.00000000    
 -0.37981865140323751        3.3703380683580642E-002   0.00000000    
 -0.38850042876926200        1.6189613888388826E-002   0.00000000    
 -0.39119234811113368       -1.9388164084102272E-003   0.00000000    
 -0.38762437270079192       -2.0347989201064655E-002   0.00000000    
 -0.37785149363657938       -3.8789718206209751E-002   0.00000000    
 -0.36176554217689011       -5.6891712387971013E-002   0.00000000    
 -0.33968161133961922       -7.4350914138662738E-002   0.00000000    
 -0.31169456642958465       -9.0798974790094772E-002   0.00000000    
 -0.27837952755726814      -0.10589701854754491        0.00000000    
 -0.24006394376412771      -0.11933240634415940        0.00000000    
 -0.19754429720593486      -0.13076477990562835        0.00000000    
 -0.15138673850014170      -0.13998628770446572        0.00000000    
 -0.10253357586830263      -0.14670034731334192        0.00000000    
  -5.1763237923764048E-002 -0.15083714073515953        0.00000000    
  -6.3737621100345014E-005 -0.15219112046793848        0.00000000    
   5.1635879505623046E-002 -0.15083897678538755        0.00000000    
  0.10240733763348502      -0.14670400569765335        0.00000000    
  0.15126184450645985      -0.13999171238153618        0.00000000    
  0.19742171103752171      -0.13077193240003837        0.00000000    
  0.23994386178346672      -0.11934118177143900        0.00000000    
  0.27826283952634034      -0.10590736124183199        0.00000000    
  0.31158142983736553       -9.0810744368116772E-002   0.00000000    
  0.33957281781344351       -7.4364047186136442E-002   0.00000000    
  0.36166120474913577       -5.6906048797449635E-002   0.00000000    
  0.37775229326835169       -3.8805195390424284E-002   0.00000000    
  0.38753037930842699       -2.0364441136994923E-002   0.00000000    
  0.39110412880721396       -1.9561889221495522E-003   0.00000000    
  0.38841801758066358        1.6171481938332729E-002   0.00000000    
  0.37974250682709376        3.3684530390533145E-002   0.00000000    
  0.36525165165502155        5.0394054408293830E-002   0.00000000    
  0.34533570970195360        6.6030259363316343E-002   0.00000000    
  0.32035008386196279        8.0457109167427640E-002   0.00000000    
  0.29076918235921989        9.3477815278995569E-002   0.00000000    
  0.25707689109424159       0.10499783734182466        0.00000000    
  0.21980533375359168       0.11488894428347426        0.00000000    
  0.17951883385481146       0.12308666984069509        0.00000000    
  0.13678930891457691       0.12951941846335441        0.00000000    
   9.2223156402288051E-002  0.13414476274462372        0.00000000    
   4.6419800126440584E-002  0.13693367527041569        0.00000000    
   0.0000000000000000       0.13786290845428331        0.00000000    
   0.0000000000000000       0.18483261690945027        0.00000000    
  -4.7153322498361128E-002  0.18358918187474621        0.00000000    
  -9.3687263717520897E-002  0.17987857152041392        0.00000000    
 -0.13899723171435202       0.17371352743119778        0.00000000    
 -0.18246192680869214       0.16513834498732302        0.00000000    
 -0.22349977417467876       0.15421271966248865        0.00000000    
 -0.26150883839553540       0.14100536700970698        0.00000000    
 -0.29593826609510804       0.12564194868845638        0.00000000    
 -0.32623818093762491       0.10822308556868955        0.00000000    
 -0.35189994806230002        8.8959897211123781E-002   0.00000000    
 -0.37247110118984822        6.7998793655261847E-002   0.00000000    
 -0.38750464473119761        4.5650002023498740E-002   0.00000000    
 -0.39670138018386225        2.2122773995639791E-002   0.00000000    
 -0.39970626173030055       -2.1739077185244848E-003   0.00000000    
 -0.39643241928620732       -2.6953448678889661E-002   0.00000000    
 -0.38665805820280752       -5.1730232520153276E-002   0.00000000    
 -0.37055787366370097       -7.6136068565734433E-002   0.00000000    
 -0.34809107061203165       -9.9656026997715905E-002   0.00000000    
 -0.31971683091463038      -0.12185388248038567        0.00000000    
 -0.28561969405459253      -0.14225302308818863        0.00000000    
 -0.24652564186640627      -0.16038477495701040        0.00000000    
 -0.20287187316814898      -0.17588456414463591        0.00000000    
 -0.15558781154386928      -0.18830686188180726        0.00000000    
 -0.10536006255052124      -0.19745942311169526        0.00000000    
  -5.3220911857179885E-002 -0.20298629218417361        0.00000000    
  -6.3751891368194025E-005 -0.20489736798683134        0.00000000    
   5.3093922103764200E-002 -0.20298875908764197        0.00000000    
  0.10523381953475233      -0.19746431756414612        0.00000000    
  0.15546332107529870      -0.18831414727920562        0.00000000    
  0.20274934694701455      -0.17589412799209247        0.00000000    
  0.24640602333872366      -0.16039655091285054        0.00000000    
  0.28550315768626355      -0.14226684136391343        0.00000000    
  0.31960422610480183      -0.12186965947484162        0.00000000    
  0.34798252638299126       -9.9673556276719477E-002   0.00000000    
  0.37045412752960039       -7.6155262937949858E-002   0.00000000    
  0.38655919199157607       -5.1750868725355961E-002   0.00000000    
  0.39633905195571617       -2.6975447451562364E-002   0.00000000    
  0.39961843423369531       -2.1970473193518711E-003   0.00000000    
  0.39661959633167188        2.2098557371610237E-002   0.00000000    
  0.38742891372567717        4.5624916943656911E-002   0.00000000    
  0.37240182107539477        6.7972885088823237E-002   0.00000000    
  0.35183710731198015        8.8933354492203076E-002   0.00000000    
  0.32618208325437581       0.10819593471531068        0.00000000    
  0.29588888849968675       0.12561435736859011        0.00000000    
  0.26146640251307146       0.14097734444266338        0.00000000    
  0.22346425527956970       0.15418441417924061        0.00000000    
  0.18243347493240814       0.16510975302472428        0.00000000    
  0.13897582621470667       0.17368478210932556        0.00000000    
   9.3672991571446790E-002  0.17984965967766758        0.00000000    
   4.7146172250700953E-002  0.18356022753128337        0.00000000    
   0.0000000000000000       0.18480360225240194        0.00000000    
   0.0000000000000000       0.23258606903872223        0.00000000    
  -4.8053239358111101E-002  0.23104350374653673        0.00000000    
  -9.5498329206374466E-002  0.22640449276857211        0.00000000    
 -0.14171154553726656       0.21871200238956437        0.00000000    
 -0.18610697772710363       0.20800120892079593        0.00000000    
 -0.22805927856600033       0.19434121519743336        0.00000000    
 -0.26700830850179957       0.17783617645992950        0.00000000    
 -0.30235229684357362       0.15858576560107343        0.00000000    
 -0.33356168771961348       0.13678978412248605        0.00000000    
 -0.36009794453861910       0.11259243169242716        0.00000000    
 -0.38147300116221949        8.6313677339135281E-002   0.00000000    
 -0.39726659118924418        5.8163459538158477E-002   0.00000000    
 -0.40705394898778180        2.8594616624231031E-002   0.00000000    
 -0.41059961566523850       -2.0939961090165470E-003   0.00000000    
 -0.40757815923844420       -3.3327453895410961E-002   0.00000000    
 -0.39800587387434200       -6.4701669411756271E-002   0.00000000    
 -0.38170621807039568       -9.5563268390399705E-002   0.00000000    
 -0.35899621557658012      -0.12540443000131710        0.00000000    
 -0.32990422040878142      -0.15357051225290774        0.00000000    
 -0.29505800302518453      -0.17947854629222332        0.00000000    
 -0.25473956584013269      -0.20257054036359359        0.00000000    
 -0.20984402420380280      -0.22224690896843233        0.00000000    
 -0.16093119938279732      -0.23814020375073716        0.00000000    
 -0.10906780738476746      -0.24971602290842182        0.00000000    
  -5.5075537981625032E-002 -0.25685991333857344        0.00000000    
  -6.3539879609096094E-005 -0.25919170590273111        0.00000000    
   5.4948577212852102E-002 -0.25686301326214711        0.00000000    
  0.10894201339370523      -0.24972219785606498        0.00000000    
  0.16080679792254637      -0.23814935373156268        0.00000000    
  0.20972201526687037      -0.22225896500343867        0.00000000    
  0.25462014172831376      -0.20258531665131319        0.00000000    
  0.29494207588903842      -0.17949594337159111        0.00000000    
  0.32979193577961274      -0.15359028451029533        0.00000000    
  0.35888837239310728      -0.12542646604462934        0.00000000    
  0.38160291060081575       -9.5587289808443290E-002   0.00000000    
  0.39790777667058180       -6.4727568760818158E-002   0.00000000    
  0.40748532002568405       -3.3354946397448793E-002   0.00000000    
  0.41051258556212111       -2.1229909252236411E-003   0.00000000    
  0.40697273888737551        2.8564391566818611E-002   0.00000000    
  0.39719163898545184        5.8132072147007288E-002   0.00000000    
  0.38140429222260119        8.6281376927004411E-002   0.00000000    
  0.36003581554793440       0.11255926150455858        0.00000000    
  0.33350611026264587       0.13675596613540855        0.00000000    
  0.30230352085000606       0.15855131986196769        0.00000000    
  0.26696630129029358       0.17780129781517698        0.00000000    
  0.22802421549237653       0.19430590466483696        0.00000000    
  0.18607882986133784       0.20796563977888746        0.00000000    
  0.14169042437272447       0.21867616116723726        0.00000000    
   9.5484214834875930E-002  0.22636853667767068        0.00000000    
   4.8046185662492615E-002  0.23100741107497566        0.00000000    
   0.0000000000000000       0.23254998876450364        0.00000000    
   0.0000000000000000       0.28132791242838001        0.00000000    
  -4.9111150237064388E-002  0.27946720064468689        0.00000000    
  -9.7609111908703791E-002  0.27392499799297093        0.00000000    
 -0.14490642705810780       0.26470317905375151        0.00000000    
 -0.19037021557513747       0.25187040310273412        0.00000000    
 -0.23343893448304665       0.23549419052357465        0.00000000    
 -0.27347626108223100       0.21567070698526558        0.00000000    
 -0.30994515346435070       0.19256526457609835        0.00000000    
 -0.34223688591490825       0.16631255663727285        0.00000000    
 -0.36984069901943850       0.13721087659472028        0.00000000    
 -0.39222511893397322       0.10545585570084995        0.00000000    
 -0.40891641982560034        7.1507318064051778E-002   0.00000000    
 -0.41952913650772700        3.5651977650593115E-002   0.00000000    
 -0.42365239613120459       -1.4812865568287626E-003   0.00000000    
 -0.42112780775432146       -3.9485064961026412E-002   0.00000000    
 -0.41165216372347480       -7.7590845227879540E-002   0.00000000    
 -0.39537022710126268      -0.11525454350675771        0.00000000    
 -0.37214813323114670      -0.15164411046293033        0.00000000    
 -0.34247860195946839      -0.18609121842075524        0.00000000    
 -0.30646454894093833      -0.21781697130969824        0.00000000    
 -0.26493417271750697      -0.24607979038223043        0.00000000    
 -0.21828116593835953      -0.27028506943760772        0.00000000    
 -0.16758803133965267      -0.28970686539837032        0.00000000    
 -0.11355776208670401      -0.30404188548328143        0.00000000    
  -5.7390291921262396E-002 -0.31269265363655246        0.00000000    
  -6.3502757014074408E-005 -0.31569661626813217        0.00000000    
   5.7263829997853913E-002 -0.31269641614092986        0.00000000    
  0.11343208190251879      -0.30404934636760056        0.00000000    
  0.16746419245256058      -0.28971796327045413        0.00000000    
  0.21815937915175035      -0.27029962220597242        0.00000000    
  0.26481541976851719      -0.24609768859964370        0.00000000    
  0.30634899384644260      -0.21783794129060088        0.00000000    
  0.34236711264434677      -0.18611512606355796        0.00000000    
  0.37204081805992323      -0.15167062671170339        0.00000000    
  0.39526782217053824      -0.11528353067459252        0.00000000    
  0.41155472380788977       -7.7621954109582794E-002   0.00000000    
  0.42103593564974229       -3.9518173733527791E-002   0.00000000    
  0.42356610354569946       -1.5160537329243168E-003   0.00000000    
  0.41944890211179914        3.5615646759468447E-002   0.00000000    
  0.40884222450978902        7.1469739528114695E-002   0.00000000    
  0.39215733228965022       0.10541709449634468        0.00000000    
  0.36977928471007293       0.13717121491346249        0.00000000    
  0.34218212055691954       0.16627202965683560        0.00000000    
  0.30989699463079612       0.19252411984056736        0.00000000    
  0.27343490714523638       0.21562895365653292        0.00000000    
  0.23340434566313722       0.23545204541798787        0.00000000    
  0.19034252468327278       0.25182785539602776        0.00000000    
  0.14488560379146165       0.26466042206775081        0.00000000    
   9.7595232349777600E-002  0.27388200716301986        0.00000000    
   4.9104198151570966E-002  0.27942415456083108        0.00000000    
   0.0000000000000000       0.28128477978333549        0.00000000    
   0.0000000000000000       0.33116803941766426        0.00000000    
  -5.0286224714241975E-002  0.32902553794589584        0.00000000    
  -9.9982563140346009E-002  0.32256205002373262        0.00000000    
 -0.14846541892673407       0.31184738700678849        0.00000000    
 -0.19517651792448751       0.29690217140322556        0.00000000    
 -0.23946504091329771       0.27782075248649496        0.00000000    
 -0.28079779212106609       0.25471531069947306        0.00000000    
 -0.31851686449841282       0.22770971293561232        0.00000000    
 -0.35210736459180375       0.19705142748103407        0.00000000    
 -0.38094401306252740       0.16291355325190313        0.00000000    
 -0.40452874016553136       0.12572341121417024        0.00000000    
 -0.42233314303314290        8.5736550566193212E-002   0.00000000    
 -0.43388737495647950        4.3590777170698328E-002   0.00000000    
 -0.43884823691265268       -3.3488211150490117E-004   0.00000000    
 -0.43680665515554068       -4.5196558002588844E-002   0.00000000    
 -0.42770493922610625       -9.0455631724960267E-002   0.00000000    
 -0.41125309929972881      -0.13512245393384040        0.00000000    
 -0.38776369099386654      -0.17848662371535198        0.00000000    
 -0.35714493882841991      -0.21953591080190521        0.00000000    
 -0.32011136931061096      -0.25741882470559246        0.00000000    
 -0.27685184932299089      -0.29126675698542098        0.00000000    
 -0.22843190542609310      -0.32016997815155790        0.00000000    
 -0.17538003020262333      -0.34356589152308203        0.00000000    
 -0.11897783164137625      -0.36061425274998432        0.00000000    
  -6.0101400467547916E-002 -0.37116311347660835        0.00000000    
  -6.3220430632354355E-005 -0.37459005159228870        0.00000000    
   5.9975083001590761E-002 -0.37116754296738669        0.00000000    
  0.11885275842813441      -0.36062307263966747        0.00000000    
  0.17525643139126185      -0.34357894608953582        0.00000000    
  0.22831083961316637      -0.32018715932460173        0.00000000    
  0.27673350205695330      -0.29128777918368826        0.00000000    
  0.31999668784324442      -0.25744353435923512        0.00000000    
  0.35703404839713720      -0.21956393558868670        0.00000000    
  0.38765739872418292      -0.17851779512635535        0.00000000    
  0.41115146860618079      -0.13515635775754553        0.00000000    
  0.42760863109962888       -9.0492111533976904E-002   0.00000000    
  0.43671568160956281       -4.5235198240921114E-002   0.00000000    
  0.43876312135534679       -3.7555533072474546E-004   0.00000000    
  0.43380809269042958        4.3548460840084263E-002   0.00000000    
  0.42226009665395109        8.5692682501354658E-002   0.00000000    
  0.40446188319622151       0.12567834145530299        0.00000000    
  0.38088364740716729       0.16286733647450602        0.00000000    
  0.35205343528171235       0.19700437029811249        0.00000000    
  0.31846959022340832       0.22766183684130198        0.00000000    
  0.28075711991581853       0.25466688176116598        0.00000000    
  0.23943112146153933       0.27777176511804530        0.00000000    
  0.19514930782949239       0.29685285867250383        0.00000000    
  0.14844501250990663       0.31179772373946191        0.00000000    
   9.9968931996451987E-002  0.32251224649237514        0.00000000    
   5.0279413941674678E-002  0.32897555671666473        0.00000000    
   0.0000000000000000       0.33111807905787172        0.00000000    
   0.0000000000000000       0.38225268164568904        0.00000000    
  -5.1557609732439592E-002  0.37978575824341754        0.00000000    
 -0.10251761955603492       0.37245920595851423        0.00000000    
 -0.15232533343894730       0.36024182849842779        0.00000000    
 -0.20033690067967824       0.34323142361758829        0.00000000    
 -0.24603031421843380       0.32147446382799488        0.00000000    
 -0.28872352524601519       0.29508858813682221        0.00000000    
 -0.32791354272747170       0.26424655127172875        0.00000000    
 -0.36290628013367365       0.22909885187832307        0.00000000    
 -0.39320481733253437       0.19000233897683100        0.00000000    
 -0.41815569881586467       0.14717125765543676        0.00000000    
 -0.43726292895379654       0.10120135982719596        0.00000000    
 -0.44999950111887999        5.2417793645682872E-002   0.00000000    
 -0.45588380083917596        1.6842838138158090E-003   0.00000000    
 -0.45463144519867521       -5.0508641791816321E-002   0.00000000    
 -0.44581891340813012      -0.10305677701934836        0.00000000    