 <VTKFile type="UnstructuredGrid" version="0.1" byte_order="BigEndian">
 <UnstructuredGrid>
 <Piece NumberOfPoints="        2601 " NumberOfCells="        2500 ">
 <PointData Scalars="scalars">
 <DataArray type="Float32" NumberOfComponents="3" Name="Velocity" Format="ascii">
   0.0000000000000000        0.0000000000000000        0.00000000    
  -3.1003032709507286E-002   0.0000000000000000        0.00000000    
  -6.1503990880128111E-002   0.0000000000000000        0.00000000    
  -9.1218496291408074E-002   0.0000000000000000        0.00000000    
 -0.11944911728610852        0.0000000000000000        0.00000000    
 -0.14613755222020539        0.0000000000000000        0.00000000    
 -0.17042796205431673        0.0000000000000000        0.00000000    
 -0.19248404367782748        0.0000000000000000        0.00000000    
 -0.21134248681034154        0.0000000000000000        0.00000000    
 -0.22737437343294220        0.0000000000000000        0.00000000    
 -0.23957157491040001        0.0000000000000000        0.00000000    
 -0.24848934665656067        0.0000000000000000        0.00000000    
 -0.25314499316421457        0.0000000000000000        0.00000000    
 -0.25424773574410309        0.0000000000000000        0.00000000    
 -0.25091231167560513        0.0000000000000000        0.00000000    
 -0.24396574710510691        0.0000000000000000        0.00000000    
 -0.23268693837030424        0.0000000000000000        0.00000000    
 -0.21797906964555017        0.0000000000000000        0.00000000    
 -0.19933948928097128        0.0000000000000000        0.00000000    
 -0.17770057715854412        0.0000000000000000        0.00000000    
 -0.15281399590115796        0.0000000000000000        0.00000000    
 -0.12558945115761971        0.0000000000000000        0.00000000    
  -9.6046749991499855E-002   0.0000000000000000        0.00000000    
  -6.5017455819409140E-002   0.0000000000000000        0.00000000    
  -3.2780835756813780E-002   0.0000000000000000        0.00000000    
  -3.4003239030091062E-005   0.0000000000000000        0.00000000    
   3.2712914247074773E-002   0.0000000000000000        0.00000000    
   6.4950025798982486E-002   0.0000000000000000        0.00000000    
   9.5979979005291219E-002   0.0000000000000000        0.00000000    
  0.12552373584521115        0.0000000000000000        0.00000000    
  0.15274949696418089        0.0000000000000000        0.00000000    
  0.17763767210852494        0.0000000000000000        0.00000000    
  0.19927832784226115        0.0000000000000000        0.00000000    
  0.21792000204778908        0.0000000000000000        0.00000000    
  0.23263009971258031        0.0000000000000000        0.00000000    
  0.24391145417678056        0.0000000000000000        0.00000000    
  0.25086068260821542        0.0000000000000000        0.00000000    
  0.25419904895340079        0.0000000000000000        0.00000000    
  0.25309934867474881        0.0000000000000000        0.00000000    
  0.24844698216802841        0.0000000000000000        0.00000000    
  0.23953257235451034        0.0000000000000000        0.00000000    
  0.22733892827130414        0.0000000000000000        0.00000000    
  0.21131066332598369        0.0000000000000000        0.00000000    
  0.19245599591807191        0.0000000000000000        0.00000000    
  0.17040373783343044        0.0000000000000000        0.00000000    
  0.14611726540336595        0.0000000000000000        0.00000000    
  0.11943280052394714        0.0000000000000000        0.00000000    
   9.1206224425839352E-002   0.0000000000000000        0.00000000    
   6.1495782847058249E-002   0.0000000000000000        0.00000000    
   3.0998925609465797E-002   0.0000000000000000        0.00000000    
   0.0000000000000000        0.0000000000000000        0.00000000    
   0.0000000000000000        3.1140214270043383E-002   0.00000000    
  -3.1077841232408632E-002   3.0942118240527883E-002   0.00000000    
  -6.1760289418269346E-002   3.0242746627156387E-002   0.00000000    
  -9.1441781800974731E-002   2.9154709597043527E-002   0.00000000    
 -0.11995213741675002        2.7587725274408836E-002   0.00000000    
 -0.14650521396847743        2.5655244314429216E-002   0.00000000    
 -0.17115770746628189        2.3289116848758656E-002   0.00000000    
 -0.19298713859222405        2.0597853505042143E-002   0.00000000    
 -0.21226717269295198        1.7542080973487729E-002   0.00000000    
 -0.22799651143888097        1.4220601356387075E-002   0.00000000    
 -0.24064632964487889        1.0627874862629930E-002   0.00000000    
 -0.24920412701766009        6.8491504665722036E-003   0.00000000    
 -0.25431142428256731        2.9152490489349593E-003   0.00000000    
 -0.25501717923527423       -1.1052961211240682E-003   0.00000000    
 -0.25209976115656829       -5.1460911111102098E-003   0.00000000    
 -0.24474066677755832       -9.1581132721865483E-003   0.00000000    
 -0.23381603142983096       -1.3043876706904763E-002   0.00000000    
 -0.21870202055572377       -1.6776549115620008E-002   0.00000000    
 -0.20032811154396818       -2.0235486899429389E-002   0.00000000    
 -0.17831142612108555       -2.3418657567655887E-002   0.00000000    
 -0.15358517576784880       -2.6192721304168446E-002   0.00000000    
 -0.12603284296163408       -2.8582703725565754E-002   0.00000000    
  -9.6537292173000416E-002  -3.0454095949617642E-002   0.00000000    
  -6.5250763156097805E-002  -3.1860275098109903E-002   0.00000000    
  -3.2949150808062697E-002  -3.2676505295900875E-002   0.00000000    
  -3.4005938479498883E-005  -3.2984020122190635E-002   0.00000000    
   3.2881342964153154E-002  -3.2676794297301942E-002   0.00000000    
   6.5183328329045984E-002  -3.1860850603006932E-002   0.00000000    
   9.6470633470182462E-002  -3.0454955603361047E-002   0.00000000    
  0.12596712472938429       -2.8583840216475375E-002   0.00000000    
  0.15352078641473910       -2.6194130068173560E-002   0.00000000    
  0.17824852103305264       -2.3420326956120879E-002   0.00000000    
  0.20026705559013483       -2.0237410256964558E-002   0.00000000    
  0.21864295615540977       -1.6778711153131700E-002   0.00000000    
  0.23375929275943677       -1.3046269339981025E-002   0.00000000    
  0.24468638021815012       -9.1607184802051551E-003   0.00000000    
  0.25204822472306282       -5.1488998906902240E-003   0.00000000    
  0.25496850172881336       -1.1082885461073195E-003   0.00000000    
  0.25426586368448006        2.9120822634334056E-003   0.00000000    
  0.24916177380591611        6.8458298638593377E-003   0.00000000    
  0.24060740019111929        1.0624409773741059E-002   0.00000000    
  0.22796107828917742        1.4217012745939811E-002   0.00000000    
  0.21223541013538344        1.7538377313460248E-002   0.00000000    
  0.19295910209313796        2.0594055380882194E-002   0.00000000    
  0.17113353046889784        2.3285231931220268E-002   0.00000000    
  0.14648493625642570        2.5651292541428328E-002   0.00000000    
  0.11993585293559149        2.7583713760660919E-002   0.00000000    
   9.1429515924461760E-002   2.9150657608354044E-002   0.00000000    
   6.1752097769393353E-002   3.0238660554499829E-002   0.00000000    
   3.1073736194796319E-002   3.0938016767671241E-002   0.00000000    
   0.0000000000000000        3.1136103604021536E-002   0.00000000    
   0.0000000000000000        6.2538231922888932E-002   0.00000000    
  -3.1409684274972767E-002   6.2033022831091175E-002   0.00000000    
  -6.2312625511750042E-002   6.0738628170719483E-002   0.00000000    
  -9.2426844492629862E-002   5.8455935979731630E-002   0.00000000    
 -0.12104271608268481        5.5414122587493987E-002   0.00000000    
 -0.14811050845220555        5.1451112123356658E-002   0.00000000    
 -0.17275480547423963        4.6791435642286022E-002   0.00000000    
 -0.19515286885257638        4.1324424885507416E-002   0.00000000    
 -0.21431531595217082        3.5259386304313668E-002   0.00000000    
 -0.23063049671465133        2.8549210532467492E-002   0.00000000    
 -0.24305944132160007        2.1379423305811232E-002   0.00000000    
 -0.25217713720678159        1.3774489506248282E-002   0.00000000    
 -0.25696780947058590        5.8892735469420242E-003   0.00000000    
 -0.25816184015208299       -2.1781415907606602E-003   0.00000000    
 -0.25484175314366636       -1.0309357561870045E-002   0.00000000    
 -0.24785642055003390       -1.8337881237030992E-002   0.00000000    
 -0.23645663120701749       -2.6187141100340330E-002   0.00000000    
 -0.22156762779739458       -3.3634907238993428E-002   0.00000000    
 -0.20266555472127670       -4.0651719303018405E-002   0.00000000    
 -0.18070470689980062       -4.6978567332014699E-002   0.00000000    
 -0.15542426122784758       -5.2638116660343882E-002   0.00000000    
 -0.12775520639837284       -5.7357305471787273E-002   0.00000000    
  -9.7714096185295002E-002  -6.1214764795304029E-002   0.00000000    
  -6.6152266451247596E-002  -6.3946574826917776E-002   0.00000000    
  -3.3354211554079014E-002  -6.5688482700474823E-002   0.00000000    
  -3.3894210317869400E-005  -6.6206114898726048E-002   0.00000000    
   3.3286507413909351E-002  -6.5689060015459141E-002   0.00000000    
   6.6085054368391002E-002  -6.3947727092494050E-002   0.00000000    
   9.7647542398256862E-002  -6.1216482108646560E-002   0.00000000    
  0.12768970875651478       -5.7359580919096126E-002   0.00000000    
  0.15535997913610991       -5.2640930897590067E-002   0.00000000    
  0.18064201840007379       -4.6981909104729484E-002   0.00000000    
  0.20260460804498398       -4.0655561234464212E-002   0.00000000    
  0.22150877353578591       -3.3639234671347155E-002   0.00000000    
  0.23640000283763829       -2.6191919961387998E-002   0.00000000    
  0.24780233457543302       -1.8343094723528016E-002   0.00000000    
  0.25479032607776858       -1.0314967098367434E-002   0.00000000    
  0.25811334984368661       -2.1841289441816708E-003   0.00000000    
  0.25692235438613664        5.8829495566554129E-003   0.00000000    
  0.25213495366209104        1.3767847181299038E-002   0.00000000    
  0.24302060937144465        2.1372504585640453E-002   0.00000000    
  0.23059521076863751        2.8542033244090159E-002   0.00000000    
  0.21428363860102209        3.5251992134136219E-002   0.00000000    
  0.19512495274744870        4.1316829965901324E-002   0.00000000    
  0.17273069703963709        4.6783680346822794E-002   0.00000000    
  0.14809032017779244        5.1443211281604971E-002   0.00000000    
  0.12102647955431660        5.5406115164368129E-002   0.00000000    
   9.2414633639801000E-002   5.8447835619038276E-002   0.00000000    
   6.2304458616109851E-002   6.0730472284021689E-002   0.00000000    
   3.1405597848139302E-002   6.2024824090982658E-002   0.00000000    
   0.0000000000000000        6.2530027058443044E-002   0.00000000    
   0.0000000000000000        9.4231603108507020E-002   0.00000000    
  -3.1885692865920766E-002   9.3636363765244673E-002   0.00000000    
  -6.3374099763720368E-002   9.1527970256516503E-002   0.00000000    
  -9.3842916961288381E-002   8.8250964940588150E-002   0.00000000    
 -0.12313349960645208        8.3526882454966950E-002   0.00000000    
 -0.15042773437704191        7.7701713954332216E-002   0.00000000    
 -0.17580514310721637        7.0563873681217373E-002   0.00000000    
 -0.19829701832324206        6.2443259505703529E-002   0.00000000    
 -0.21820859743464940        5.3215911379716790E-002   0.00000000    
 -0.23448069135868740        4.3181293556999442E-002   0.00000000    
 -0.24762217750100204        3.2319103759083694E-002   0.00000000    
 -0.25655531278784410        2.0886972865237403E-002   0.00000000    
 -0.26196309754474750        8.9765791011913090E-003   0.00000000    
 -0.26282768110227228       -3.2055011158149314E-003   0.00000000    
 -0.25997086469695224       -1.5457570424333473E-002   0.00000000    
 -0.25251235633895347       -2.7632178410893365E-002   0.00000000    
 -0.24137247013782118       -3.9431189287101862E-002   0.00000000    
 -0.22587691023247863       -5.0774092295195902E-002   0.00000000    
 -0.20699932736247817       -6.1290860773498428E-002   0.00000000    
 -0.18432253067974924       -7.0975741048657795E-002   0.00000000    
 -0.15882317284599429       -7.9419417663285113E-002   0.00000000    
 -0.13036896603186388       -8.6697937409154005E-002   0.00000000    
  -9.9884229668427471E-002  -9.2398651105773291E-002   0.00000000    
  -6.7523634480007144E-002  -9.6683785164283650E-002   0.00000000    
  -3.4100302135140301E-002  -9.9171331524189874E-002   0.00000000    
  -3.3786763612439060E-005 -0.10010877072818578        0.00000000    
   3.4032933969726391E-002  -9.9172198481444970E-002   0.00000000    
   6.7456637973153349E-002  -9.6685511503629112E-002   0.00000000    
   9.9818010392631176E-002  -9.2401229872377297E-002   0.00000000    
  0.13030368556802499       -8.6701346360663609E-002   0.00000000    
  0.15875922149766120       -7.9423643062269456E-002   0.00000000    
  0.18426006101057316       -7.0980746931277899E-002   0.00000000    
  0.20693870526721742       -6.1296627992853500E-002   0.00000000    
  0.22581827501107840       -5.0780573728802868E-002   0.00000000    
  0.24131615607586132       -3.9438361199175313E-002   0.00000000    
  0.25245848672777493       -2.7639985692673542E-002   0.00000000    
  0.25991973643904814       -1.5465986428267320E-002   0.00000000    
  0.26277939952066492       -3.2144654364649260E-003   0.00000000    
  0.26191791871651865        8.9670940999459475E-003   0.00000000    
  0.25651332402879035        2.0877029941341944E-002   0.00000000    
  0.24758359256001256        3.2308730224292953E-002   0.00000000    
  0.23444557913400707        4.3170552361732402E-002   0.00000000    
  0.21817712965719907        5.3204828073278199E-002   0.00000000    
  0.19826924743157126        6.2431895589428188E-002   0.00000000    
  0.17578119963213609        7.0552252294180010E-002   0.00000000    
  0.15040765549327240        7.7689894451470745E-002   0.00000000    
  0.12311737687435388        8.3514885794052335E-002   0.00000000    
   9.3830774118911164E-002   8.8238848251203983E-002   0.00000000    
   6.3365990936134833E-002   9.1515752725310207E-002   0.00000000    
   3.1881629483594527E-002   9.3624100754341105E-002   0.00000000    
   0.0000000000000000        9.4219312704459129E-002   0.00000000    
   0.0000000000000000       0.12669469605108186        0.00000000    
  -3.2614976868496327E-002  0.12567521378733465        0.00000000    
  -6.4709768060068742E-002  0.12307359156154726        0.00000000    
  -9.6010607229642095E-002  0.11847627301525214        0.00000000    
 -0.12577129753992994       0.11235412036939708        0.00000000    
 -0.15396918726839373       0.10436787313541533        0.00000000    
 -0.17966947838980926        9.4976686978874264E-002   0.00000000    
 -0.20309173478131110        8.3945849819429583E-002   0.00000000    
 -0.22316696814694070        7.1701405581353364E-002   0.00000000    
 -0.24033702343069221        5.8139219829475806E-002   0.00000000    
 -0.25346829542915206        4.3635206925439166E-002   0.00000000    
 -0.26319655529735186        2.8233535278372586E-002   0.00000000    
 -0.26840412856363899        1.2246645158854947E-002   0.00000000    
 -0.26988618649308133       -4.1276561598986702E-003   0.00000000    
 -0.26662576400978677       -2.0651384731478286E-002   0.00000000    
 -0.25953819236665754       -3.6983175477817230E-002   0.00000000    
 -0.24778738527491481       -5.2969616888407477E-002   0.00000000    
 -0.23236531517966560       -6.8152026911401417E-002   0.00000000    
 -0.21268271971565098       -8.2471836721322314E-002   0.00000000    
 -0.18975997845131723       -9.5393035996565761E-002   0.00000000    
 -0.16329802971268312      -0.10696216225499097        0.00000000    
 -0.13429206612648870      -0.11661409673431279        0.00000000    
 -0.10274906194678388      -0.12450896585780091        0.00000000    
  -6.9580249511645278E-002 -0.13010161191431094        0.00000000    
  -3.5086621020006398E-002 -0.13366919949971842        0.00000000    
  -3.3559745197553291E-005 -0.13472921340536997        0.00000000    
   3.5019583749745030E-002 -0.13367035403902458        0.00000000    
   6.9513706216348725E-002 -0.13010391630518728        0.00000000    
  0.10268317469239890      -0.12451239984511078        0.00000000    
  0.13422723605695355      -0.11661864646214397        0.00000000    
  0.16323441187810830      -0.10696778822854348        0.00000000    
  0.18969795330468678       -9.5399715672097651E-002   0.00000000    
  0.21262243109179535       -8.2479514245027447E-002   0.00000000    
  0.23230711457265910       -6.8160672931897981E-002   0.00000000    
  0.24773140159084275       -5.2979162296675181E-002   0.00000000    
  0.25948474117898002       -3.6993586211250984E-002   0.00000000    
  0.26657495681398014       -2.0662582629737948E-002   0.00000000    
  0.26983829884470600       -4.1396048107523297E-003   0.00000000    
  0.26835925374423131        1.2234028904522590E-002   0.00000000    
  0.26315492600326240        2.8220288012153937E-002   0.00000000    
  0.25342998664331301        4.3621413405617662E-002   0.00000000    
  0.24030222548688335        5.8124915059883479E-002   0.00000000    
  0.22313573874252096        7.1686672861503695E-002   0.00000000    
  0.20306422212217984        8.3930721684397580E-002   0.00000000    
  0.17964572461434622        9.4961243509156537E-002   0.00000000    
  0.15394930101083112       0.10435214360485762        0.00000000    
  0.12575530703807525       0.11233818182757799        0.00000000    
   9.5998583338129814E-002  0.11846015170549644        0.00000000    
   6.4701726990988681E-002  0.12305736181224193        0.00000000    
   3.2610953674810192E-002  0.12565889967263441        0.00000000    
   0.0000000000000000       0.12667837017356448        0.00000000    
   0.0000000000000000       0.15972585993468871        0.00000000    
  -3.3471194589846751E-002  0.15873143295795306        0.00000000    
  -6.6542928544258750E-002  0.15518510899777010        0.00000000    
  -9.8560026099044740E-002  0.14968390381141752        0.00000000    
 -0.12938933845837647       0.14173770335372357        0.00000000    
 -0.15814820861612630       0.13194226123730038        0.00000000    
 -0.18496484666835755       0.11992043861479321        0.00000000    
 -0.20877607010103708       0.10623678869319100        0.00000000    
 -0.22995364691536674        9.0664486736520139E-002   0.00000000    
 -0.24731907242480020        7.3712829457115797E-002   0.00000000    
 -0.26146001744403863        5.5335023318684506E-002   0.00000000    
 -0.27116336396183000        3.5966534420071049E-002   0.00000000    
 -0.27719807011237452        1.5757133507524165E-002   0.00000000    
 -0.27840696343294480       -4.9459850474856751E-003   0.00000000    
 -0.27570099744207566       -2.5798237203890229E-002   0.00000000    
 -0.26807067735255724       -4.6553007505056004E-002   0.00000000    
 -0.25652614116826322       -6.6693921952877669E-002   0.00000000    
 -0.24028765503869931       -8.6087071793466266E-002   0.00000000    
 -0.22041802830467311      -0.10408780869226386        0.00000000    
 -0.19642882790027913      -0.12068780028177052        0.00000000    
 -0.16938416253418753      -0.13517280741978266        0.00000000    
 -0.13911970188785119      -0.14767267110391177        0.00000000    
 -0.10664350522764825      -0.15746838816379971        0.00000000    
  -7.2116284179284340E-002 -0.16483701890406535        0.00000000    
  -3.6427037794352662E-002 -0.16911546347446146        0.00000000    
  -3.3333268088966887E-005 -0.17072851131239555        0.00000000    
   3.6360579305956271E-002 -0.16911690828163958        0.00000000    
   7.2050194371099913E-002 -0.16483989568245541        0.00000000    
  0.10657819465325538      -0.15747268503842252        0.00000000    
  0.13905532639512552      -0.14767835021131789        0.00000000    
  0.16932111631346766      -0.13517984552101467        0.00000000    
  0.19636725777385469      -0.12069613661238746        0.00000000    
  0.22035830236062351      -0.10409741026648102        0.00000000    
  0.24022990640704231       -8.6097859093361179E-002   0.00000000    
  0.25647070424806934       -6.6705854716742785E-002   0.00000000    
  0.26801766885819245       -4.6565991805916834E-002   0.00000000    
  0.27565071198053182       -2.5812228560152632E-002   0.00000000    
  0.27835949964085338       -4.9608814581385005E-003   0.00000000    
  0.27715368007932217        1.5741378424119993E-002   0.00000000    
  0.27112212780329953        3.5950026582063685E-002   0.00000000    
  0.26142214349460613        5.5317807652328410E-002   0.00000000    
  0.24728462282873065        7.3695011637558622E-002   0.00000000    
  0.22992278725422532        9.0646108591248942E-002   0.00000000    
  0.20874884682205777       0.10621795285495535        0.00000000    
  0.18494138452684428       0.11990118282599876        0.00000000    
  0.15812853954441763       0.13192268343688895        0.00000000    
  0.12937354942759471       0.14171783728391837        0.00000000    
   9.8548137061426871E-002  0.14966384342488426        0.00000000    
   6.6534990486743217E-002  0.15516488452146210        0.00000000    
   3.3467217162570090E-002  0.15871113506335063        0.00000000    
   0.0000000000000000       0.15970551721484258        0.00000000    
   0.0000000000000000       0.19402613303125951        0.00000000    
  -3.4571897064169965E-002  0.19247540145265532        0.00000000    
  -6.8603117289921842E-002  0.18854524466150796        0.00000000    
 -0.10183699964437012       0.18157589772028396        0.00000000    
 -0.13346648143990711       0.17230565338217391        0.00000000    
 -0.16351867641336931       0.16018652551116791        0.00000000    
 -0.19095770491122155       0.14593299024776057        0.00000000    
 -0.21607912876103982       0.12915803282792843        0.00000000    
 -0.23767665923975628       0.11051949861459835        0.00000000    
 -0.25628715266950064        8.9834884158704401E-002   0.00000000    
 -0.27061212137603219        6.7680030245201306E-002   0.00000000    
 -0.28139420295241430        4.4108102269213738E-002   0.00000000    
 -0.28733674742526089        1.9593963229582397E-002   0.00000000    
 -0.28934751010107607       -5.5620131115614755E-003   0.00000000    
 -0.28623382881657577       -3.1000710503709873E-002   0.00000000    
 -0.27902500664696300       -5.6188531822976874E-002   0.00000000    
 -0.26673129392707623       -8.0895501680655610E-002   0.00000000    
 -0.25045769527686179      -0.10439643315968698        0.00000000    
 -0.22949977053834117      -0.12660485493859019        0.00000000    
 -0.20498897733081878      -0.14666960478741400        0.00000000    
 -0.17655999937772313      -0.16466350324576096        0.00000000    
 -0.14531594460457659      -0.17968934847323764        0.00000000    
 -0.11124870462710802      -0.19199400512587994        0.00000000    
  -7.5371043089820830E-002 -0.20071514269953949        0.00000000    
  -3.8014486956024995E-002 -0.20628200032988780        0.00000000    
  -3.2976693790064554E-005 -0.20793604754039904        0.00000000    
   3.7948612117215154E-002 -0.20628373173376513        0.00000000    
   7.5305665144370870E-002 -0.20071859845482543        0.00000000    
  0.11118397845536182      -0.19199915403141699        0.00000000    
  0.14525227709200755      -0.17969616929076812        0.00000000    
  0.17649753815979338      -0.16467193520398932        0.00000000    
  0.20492810671419831      -0.14667961395700024        0.00000000    
  0.22944062679767391      -0.12661635473279331        0.00000000    
  0.25040063147914765      -0.10440937949546238        0.00000000    
  0.26667643089475285       -8.0909787886261048E-002   0.00000000    
  0.27897265858543174       -5.6204106079389263E-002   0.00000000    
  0.28618409898820957       -3.1017453171299173E-002   0.00000000    
  0.28930066959458939       -5.5798692030272247E-003   0.00000000    
  0.28729288066608610        1.9575120319637544E-002   0.00000000    
  0.28135353669140373        4.4088327884130696E-002   0.00000000    
  0.27057472176903979        6.7659452261708691E-002   0.00000000    
  0.25625320227502452        8.9813555089368419E-002   0.00000000    
  0.23764620743352016       0.11049754319476558        0.00000000    
  0.21605231599929550       0.12913549883647599        0.00000000    
  0.19093456626424574       0.14590999735871793        0.00000000    
  0.16349931364514017       0.16016311586125834        0.00000000    
  0.13345091714366816       0.17228194064767929        0.00000000    
  0.10182529982599464       0.18155191952616601        0.00000000    
   6.8595294585698421E-002  0.18852110989723783        0.00000000    
   3.4567983664464758E-002  0.19245114390997720        0.00000000    
   0.0000000000000000       0.19400185913121148        0.00000000    
   0.0000000000000000       0.22911837261310330        0.00000000    
  -3.5767926843011270E-002  0.22772407421640620        0.00000000    
  -7.1137208338190303E-002  0.22269816187256072        0.00000000    
 -0.10540497920759355       0.21492572210386329        0.00000000    
 -0.13848246213831264       0.20366388155272874        0.00000000    
 -0.16938881373444795       0.18978793196119548        0.00000000    
 -0.19833304544756977       0.17271593119022344        0.00000000    
 -0.22410530713210680       0.15326986491034442        0.00000000    
 -0.24718598073369366       0.13108695695867134        0.00000000    
 -0.26620866790329184       0.10690169312740780        0.00000000    
 -0.28188821146715543        8.0618818910507803E-002   0.00000000    
 -0.29279582011347866        5.2860089583946099E-002   0.00000000    
 -0.29983744769733095        2.3827232257154822E-002   0.00000000    
 -0.30163197719659934       -5.9889052901662149E-003   0.00000000    
 -0.29923024654836006       -3.6088147084764044E-002   0.00000000    
 -0.29141407248435425       -6.6125007947595613E-002   0.00000000    
 -0.27933212531103141       -9.5333603355256896E-002   0.00000000    
 -0.26203461559305991      -0.12352835745856409        0.00000000    
 -0.24071988470257272      -0.14974450514895432        0.00000000    
 -0.21478598848749295      -0.17397356264521943        0.00000000    
 -0.18542913083678386      -0.19514430067150493        0.00000000    
 -0.15243609873108144      -0.21344455744123575        0.00000000    
 -0.11694205641787445      -0.22779899869113690        0.00000000    
  -7.9120421448240275E-002 -0.23860836578713904        0.00000000    
  -3.9977224362323843E-002 -0.24488745098341844        0.00000000    
  -3.2614550883946238E-005 -0.24725563745035314        0.00000000    
   3.9912207550438790E-002 -0.24488947322586743        0.00000000    
   7.9055768502809765E-002 -0.23861239146392302        0.00000000    
  0.11687818537302555      -0.22780501134955580        0.00000000    
  0.15237315631617349      -0.21345250179542674        0.00000000    
  0.18536751729442799      -0.19515414426053321        0.00000000    
  0.21472584124067357      -0.17398521708143522        0.00000000    
  0.24066157519716816      -0.14975792429433457        0.00000000    
  0.26197826764951193      -0.12354342594870370        0.00000000    
  0.27927807329487475       -9.5350264099879067E-002   0.00000000    
  0.29136242331581824       -6.6143125484270190E-002   0.00000000    
  0.29918129118161285       -3.6107658507792378E-002   0.00000000    
  0.30158580395641366       -6.0096640756191842E-003   0.00000000    
  0.29979430181037992        2.3805290939769026E-002   0.00000000    
  0.29275577094603783        5.2837116387542730E-002   0.00000000    
  0.28185145835806308        8.0594877024968967E-002   0.00000000    
  0.26617526269912539       0.10687693084150500        0.00000000    
  0.24715607942457152       0.13106143227102079        0.00000000    
  0.22407894640252848       0.15324372056143720        0.00000000    
  0.19831034094543595       0.17268921831524014        0.00000000    
  0.16936978960773030       0.18976078604177873        0.00000000    
  0.13846719779316888       0.20363634683293116        0.00000000    
  0.10539348921837260       0.21489792705994828        0.00000000    
   7.1129538953185814E-002  0.22267014623842796        0.00000000    
   3.5764084639319169E-002  0.22769596105643522        0.00000000    
   0.0000000000000000       0.22909019872563338        0.00000000    
   0.0000000000000000       0.26595402317668765        0.00000000    
  -3.7192141002091922E-002  0.26384951837766818        0.00000000    
  -7.3819036063602600E-002  0.25856992122636613        0.00000000    
 -0.10965520239362612       0.24915892648460619        0.00000000    
 -0.14380876003517881       0.23666274450827757        0.00000000    
 -0.17638638290683911       0.22027406941535674        0.00000000    
 -0.20620649160423621       0.20099516044730209        0.00000000    
 -0.23368301599410682       0.17824044685551052        0.00000000    
 -0.25740781094238940       0.15292286914822742        0.00000000    
 -0.27806381815599596       0.12474549945226594        0.00000000    
 -0.29410631252767566        9.4498075167970735E-002   0.00000000    
 -0.30644024426421884        6.2223396710624067E-002   0.00000000    
 -0.31349821180951054        2.8564543792031685E-002   0.00000000    
 -0.31635624084079089       -6.0726364964283743E-003   0.00000000    
 -0.31355348441310577       -4.1207880650584262E-002   0.00000000    
 -0.30628613085034956       -7.6087781417269074E-002   0.00000000    