 <VTKFile type="UnstructuredGrid" version="0.1" byte_order="BigEndian">
 <UnstructuredGrid>
 <Piece NumberOfPoints="        2601 " NumberOfCells="        2500 ">
 <PointData Scalars="scalars">
 <DataArray type="Float32" NumberOfComponents="3" Name="Velocity" Format="ascii">
   0.0000000000000000        0.0000000000000000        0.00000000    
  -5.1562386955144132E-002   0.0000000000000000        0.00000000    
 -0.10301767913669545        0.0000000000000000        0.00000000    
 -0.15543867087915986        0.0000000000000000        0.00000000    
 -0.20751376228994034        0.0000000000000000        0.00000000    
 -0.26166586466440922        0.0000000000000000        0.00000000    
 -0.31515649946944102        0.0000000000000000        0.00000000    
 -0.37218975259320708        0.0000000000000000        0.00000000    
 -0.42810912499142012        0.0000000000000000        0.00000000    
 -0.48976662325915499        0.0000000000000000        0.00000000    
 -0.54964977445404195        0.0000000000000000        0.00000000    
 -0.61895398979088434        0.0000000000000000        0.00000000    
 -0.68552353294130475        0.0000000000000000        0.00000000    
 -0.76828730450129479        0.0000000000000000        0.00000000    
 -0.84683815693130171        0.0000000000000000        0.00000000    
 -0.95466312869130876        0.0000000000000000        0.00000000    
  -1.0548946978021274        0.0000000000000000        0.00000000    
  -1.2054308364065083        0.0000000000000000        0.00000000    
  -1.3290487284106263        0.0000000000000000        0.00000000    
  -1.3994303220338216        0.0000000000000000        0.00000000    
  -1.3855459919502131        0.0000000000000000        0.00000000    
  -1.1837497938933312        0.0000000000000000        0.00000000    
 -0.94887551622966837        0.0000000000000000        0.00000000    
 -0.61817327378851761        0.0000000000000000        0.00000000    
 -0.31313771794564388        0.0000000000000000        0.00000000    
   4.2793069627424345E-005   0.0000000000000000        0.00000000    
  0.31322073662270433        0.0000000000000000        0.00000000    
  0.61824979074954156        0.0000000000000000        0.00000000    
  0.94893945098484223        0.0000000000000000        0.00000000    
   1.1838007477814290        0.0000000000000000        0.00000000    
   1.3855816366112317        0.0000000000000000        0.00000000    
   1.3994562004435860        0.0000000000000000        0.00000000    
   1.3290682196663135        0.0000000000000000        0.00000000    
   1.2054467206677040        0.0000000000000000        0.00000000    
   1.0549092955126498        0.0000000000000000        0.00000000    
  0.95467535857287866        0.0000000000000000        0.00000000    
  0.84684895399522131        0.0000000000000000        0.00000000    
  0.76829615552068753        0.0000000000000000        0.00000000    
  0.68553102642479513        0.0000000000000000        0.00000000    
  0.61895997004208225        0.0000000000000000        0.00000000    
  0.54965466576112110        0.0000000000000000        0.00000000    
  0.48977041667036203        0.0000000000000000        0.00000000    
  0.42811213143412613        0.0000000000000000        0.00000000    
  0.37219201038486738        0.0000000000000000        0.00000000    
  0.31515823017257971        0.0000000000000000        0.00000000    
  0.26166711094711409        0.0000000000000000        0.00000000    
  0.20751467114957997        0.0000000000000000        0.00000000    
  0.15543927429783003        0.0000000000000000        0.00000000    
  0.10301806122310971        0.0000000000000000        0.00000000    
   5.1562564339432508E-002   0.0000000000000000        0.00000000    
   0.0000000000000000        0.0000000000000000        0.00000000    
   0.0000000000000000        5.1115765078325485E-002   0.00000000    
  -5.0897761733962175E-002   5.1345931970742602E-002   0.00000000    
 -0.10224962664586147        5.1462773263991644E-002   0.00000000    
 -0.15336192115413863        5.2072060866641727E-002   0.00000000    
 -0.20589884958603480        5.2541506172445511E-002   0.00000000    
 -0.25789951344356488        5.3612806706000750E-002   0.00000000    
 -0.31250723262267199        5.4487092685237604E-002   0.00000000    
 -0.36615671286861384        5.6197185190281544E-002   0.00000000    
 -0.42404661544667571        5.7613632310227654E-002   0.00000000    
 -0.48033661360974217        6.0335405270558945E-002   0.00000000    
 -0.54339752872787705        6.2610199109995962E-002   0.00000000    
 -0.60384208646941451        6.7140109947991106E-002   0.00000000    
 -0.67537354540732786        7.0962423217557635E-002   0.00000000    
 -0.74255321410692010        7.8982544786910761E-002   0.00000000    
 -0.82866532351490618        8.5681936488626459E-002   0.00000000    
 -0.90679847889230802       0.10027770411886404        0.00000000    
  -1.0178184346564354       0.11097531850920384        0.00000000    
  -1.1096028666047626       0.13134673652769041        0.00000000    
  -1.2471763040248931       0.12984604255235108        0.00000000    
  -1.3274710625103465        2.0831715321791913E-002   0.00000000    
  -1.2583749228952243      -0.10381083285163326        0.00000000    
  -1.1221974380716209      -0.23416157154258782        0.00000000    
 -0.82048765868347062      -0.30242125444836510        0.00000000    
 -0.55761642022699143      -0.29115104944989945        0.00000000    
 -0.27541936927764632      -0.29608040493144189        0.00000000    
   4.1352592020211764E-005 -0.29255969044012348        0.00000000    
  0.27550025490387586      -0.29607601791043836        0.00000000    
  0.55769087363222958      -0.29114250253115226        0.00000000    
  0.82055261781332822      -0.30240772488148765        0.00000000    
   1.1222467707800738      -0.23414649381622399        0.00000000    
   1.2584119243536094      -0.10379827009565763        0.00000000    
   1.3274967370864681        2.0840245703427476E-002   0.00000000    
   1.2471963183860428       0.12984955954298558        0.00000000    
   1.1096207465779941       0.13134896092182752        0.00000000    
   1.0178331963205225       0.11097749897638903        0.00000000    
  0.90681154331688341       0.10027958872149388        0.00000000    
  0.82867606088378643        8.5683811760362091E-002   0.00000000    
  0.74256238421579435        7.8984182820698967E-002   0.00000000    
  0.67538092278304573        7.0963935453673799E-002   0.00000000    
  0.60384818194990386        6.7141392840238179E-002   0.00000000    
  0.54340230826083946        6.2611321110162196E-002   0.00000000    
  0.48034044516830215        6.0336329141435635E-002   0.00000000    
  0.42404953367091219        5.7614408742899442E-002   0.00000000    
  0.36615898193140844        5.6197806570821386E-002   0.00000000    
  0.31250890034986306        5.4487599729519547E-002   0.00000000    
  0.25790076197285683        5.3613203280747479E-002   0.00000000    
  0.20589971890634712        5.2541826230422202E-002   0.00000000    
  0.15336252493196983        5.2072311792794104E-002   0.00000000    
  0.10224998978838784        5.1462984306068257E-002   0.00000000    
   5.0897939095927068E-002   5.1346111412021257E-002   0.00000000    
   0.0000000000000000        5.1115940383964831E-002   0.00000000    
   0.0000000000000000       0.10148745906483952        0.00000000    
  -4.9495192804129083E-002  0.10136867913617967        0.00000000    
  -9.8847898250649296E-002  0.10214608303446844        0.00000000    
 -0.14900237418199114       0.10265700749995747        0.00000000    
 -0.19869263237818099       0.10418523202434689        0.00000000    
 -0.25007547344687575       0.10535407032820591        0.00000000    
 -0.30055054406304138       0.10783010323620569        0.00000000    
 -0.35381448511050217       0.10976907811372523        0.00000000    
 -0.40547783906716756       0.11359647788827550        0.00000000    
 -0.46141148372384705       0.11657768102514081        0.00000000    
 -0.51456728013276565       0.12258611317662944        0.00000000    
 -0.57414619020972502       0.12718913658026301        0.00000000    
 -0.62875608931474058       0.13705622736048634        0.00000000    
 -0.69299392181634112       0.14430770580188551        0.00000000    
 -0.74758669854434523       0.16106312559490879        0.00000000    
 -0.81612177223701388       0.17156619291390152        0.00000000    
 -0.86294326770440455       0.19752972990283049        0.00000000    
 -0.92790431719018385       0.20153922704789284        0.00000000    
 -0.93584485622584423       0.20516894631137897        0.00000000    
  -1.0226013449633868       0.11256142293227465        0.00000000    
  -1.0162931038688285      -0.27094364150518424        0.00000000    
 -0.70355104639938337      -0.51594706865205064        0.00000000    
 -0.52152140064802577      -0.50437405517696088        0.00000000    
 -0.34783475341094722      -0.52575502593433154        0.00000000    
 -0.17387916550346946      -0.51762799382680924        0.00000000    
   3.6884363869906009E-005 -0.52038781037876081        0.00000000    
  0.17395164686748005      -0.51762049988329872        0.00000000    
  0.34790360691597555      -0.52573952585487982        0.00000000    
  0.52158395049728667      -0.50435168083511417        0.00000000    
  0.70360466679199929      -0.51591627981575672        0.00000000    
   1.0163286907777940      -0.27091642512047237        0.00000000    
   1.0226292459629103       0.11257431248193259        0.00000000    
  0.93587031749179561       0.20517620408555506        0.00000000    
  0.92792447226983810       0.20154515123407274        0.00000000    
  0.86296038310232281       0.19753436857056164        0.00000000    
  0.81613553863376509       0.17157066555760195        0.00000000    
  0.74759824332735647       0.16106696149617375        0.00000000    
  0.69300315117103106       0.14431126589527496        0.00000000    
  0.62876367295501734       0.13705925598550520        0.00000000    
  0.57415214601196285       0.12719181281762096        0.00000000    
  0.51457205871859502       0.12258833499644195        0.00000000    
  0.46141514657991145       0.11657956878125296        0.00000000    
  0.40548070204269765       0.11359800365132706        0.00000000    
  0.35381661332745384       0.10977033408459630        0.00000000    
  0.30055215686044051       0.10783109244603040        0.00000000    
  0.25007662308828005       0.10535486709197864        0.00000000    
  0.19869346287374617       0.10418585024880768        0.00000000    
  0.14900292063140924       0.10265750984892016        0.00000000    
   9.8848242307175468E-002  0.10214648568260552        0.00000000    
   4.9495351554604348E-002  0.10136903805867217        0.00000000    
   0.0000000000000000       0.10148779100236974        0.00000000    
   0.0000000000000000       0.14931179849151302        0.00000000    
  -4.6886323105771101E-002  0.14992728078422693        0.00000000    
  -9.4078408448011269E-002  0.15013369696455503        0.00000000    
 -0.14089637624070914       0.15164326219921404        0.00000000    
 -0.18864666638189656       0.15264094939209380        0.00000000    
 -0.23554734802579266       0.15518329966993233        0.00000000    
 -0.28404945586342534       0.15697947420666866        0.00000000    
 -0.33098255610924632       0.16081817079900521        0.00000000    
 -0.38024086538072888       0.16347046736545531        0.00000000    
 -0.42671049931142391       0.16910838998413485        0.00000000    
 -0.47623054847221857       0.17273266431280296        0.00000000    
 -0.52069643245594588       0.18108879570303374        0.00000000    
 -0.56863527637285805       0.18570671911107439        0.00000000    
 -0.60687780551358572       0.19813898669996305        0.00000000    
 -0.64750922925664212       0.20245744262854337        0.00000000    
 -0.66777639642205766       0.21897552045811516        0.00000000    
 -0.68399721854478734       0.21316410062241331        0.00000000    
 -0.65244530912184540       0.21931539054570565        0.00000000    
 -0.60291842203068591       0.14580778859436172        0.00000000    
 -0.41229417339869973        6.8056207644371203E-002   0.00000000    
  -9.4575650150424406E-002 -0.55046388963503201        0.00000000    
  -3.1999378370451359E-002 -0.61174410224646691        0.00000000    
  -2.0742555505495273E-002 -0.60186242823353076        0.00000000    
  -1.0214352425442150E-002 -0.61248049699989271        0.00000000    
  -6.4436829810872167E-003 -0.60862779162802516        0.00000000    
   2.7729859062225817E-005 -0.60977450208467643        0.00000000    
   6.4990533646929957E-003 -0.60861892098492565        0.00000000    
   1.0269593635996962E-002 -0.61246261658451007        0.00000000    
   2.0797486200095791E-002 -0.60183582004967850        0.00000000    
   3.2053996518148359E-002 -0.61170830524150011        0.00000000    
   9.4627971294733965E-002 -0.55042135092034605        0.00000000    
  0.41233367932145626        6.8074275998846329E-002   0.00000000    
  0.60294819837546543       0.14582203687546205        0.00000000    
  0.65246931809495434       0.21932539778475499        0.00000000    
  0.68401596516555285       0.21317295827191518        0.00000000    
  0.66779151698248784       0.21898274918284327        0.00000000    
  0.64752110546721775       0.20246398841303567        0.00000000    
  0.60688735102342573       0.19814448304020549        0.00000000    
  0.56864271499797148       0.18571156408906606        0.00000000    
  0.52070233430131430       0.18109282020608292        0.00000000    
  0.47623506677655453       0.17273609862505054        0.00000000    
  0.42671401559431299       0.16911118299982106        0.00000000    
  0.38024348837374278       0.16347278104001819        0.00000000    
  0.33098454609157602       0.16082000662837082        0.00000000    
  0.28405088822629920       0.15698095659767342        0.00000000    
  0.23554839718429024       0.15518444961360356        0.00000000    
  0.18864738112694748       0.15264186799660076        0.00000000    
  0.14089686405586660       0.15164397514485464        0.00000000    
   9.4078696515702803E-002  0.15013429115702792        0.00000000    
   4.6886462833170682E-002  0.14992778180939362        0.00000000    
   0.0000000000000000       0.14931228680490233        0.00000000    
   0.0000000000000000       0.19505925163308574        0.00000000    
  -4.3693148275804720E-002  0.19476066268606806        0.00000000    
  -8.7160309008347717E-002  0.19596092494358733        0.00000000    
 -0.13101289971018806       0.19648795563234278        0.00000000    
 -0.17412830288521897       0.19866331265568146        0.00000000    
 -0.21797870922697327       0.19991338588082161        0.00000000    
 -0.26037869693248911       0.20315284591092839        0.00000000    
 -0.30375223635569792       0.20495279797962102        0.00000000    
 -0.34452779508960851       0.20937106892341267        0.00000000    
 -0.38621254264464816       0.21136352573942013        0.00000000    
 -0.42326665153455223       0.21705304500930764        0.00000000    
 -0.46035962349561499       0.21832862183233545        0.00000000    
 -0.48893998064182365       0.22498744941039930        0.00000000    
 -0.51456137389966372       0.22272352248679383        0.00000000    
 -0.52378963629368147       0.22773394492109436        0.00000000    
 -0.52159954709898260       0.21177742950333756        0.00000000    
 -0.48665842420900574       0.20164324080428081        0.00000000    
 -0.41960015331666467       0.13222739006522682        0.00000000    
 -0.28895380214713529        5.2723910657469161E-002   0.00000000    
  -6.5385397922385832E-002 -0.25305125657321320        0.00000000    
  -8.1856880751365811E-005 -0.61237699948261759        0.00000000    
  -5.2980899745895509E-005 -0.61243611862684688        0.00000000    
  -3.6998663405595731E-005 -0.61244318322220881        0.00000000    
  -1.5958440559740062E-005 -0.61244897514617935        0.00000000    
   3.0967838789456834E-006 -0.61244902063556350        0.00000000    
   2.3112276830776173E-005 -0.61244468023760912        0.00000000    
   4.3127414363150571E-005 -0.61244006030251164        0.00000000    
   6.2182434343089837E-005 -0.61243105504323370        0.00000000    
   8.3222054542299046E-005 -0.61241630360727828        0.00000000    
   9.9203910374064740E-005 -0.61240028012566949        0.00000000    
   1.2807879170913627E-004 -0.61233220416083656        0.00000000    
   6.5428425412060259E-002 -0.25301943518824505        0.00000000    
  0.28898656695963110        5.2744398164564346E-002   0.00000000    
  0.41962567213696228       0.13224417144174502        0.00000000    
  0.48667831855900545       0.20165621114019738        0.00000000    
  0.52161497141180735       0.21178864163950420        0.00000000    
  0.52380168539819327       0.22774312685338152        0.00000000    
  0.51457065941345281       0.22273147697126242        0.00000000    
  0.48894720072634684       0.22499400855908541        0.00000000    
  0.46036511430995997       0.21833419821524527        0.00000000    
  0.42327086744777725       0.21705758588468155        0.00000000    
  0.38621567789339034       0.21136729487856040        0.00000000    
  0.34453015380153645       0.20937407630198229        0.00000000    
  0.30375393406107104       0.20495523412287009        0.00000000    
  0.26037993697537343       0.20315474327072106        0.00000000    
  0.21797956059562945       0.19991489273495766        0.00000000    
  0.17412889665927336       0.19866446635846682        0.00000000    
  0.13101327508949293       0.19648887880499535        0.00000000    
   8.7160539548351582E-002  0.19596165349648748        0.00000000    
   4.3693251589082320E-002  0.19476130491847515        0.00000000    
   0.0000000000000000       0.19505984178056940        0.00000000    
   0.0000000000000000       0.23616156424037901        0.00000000    
  -3.9617218717084596E-002  0.23697001966131037        0.00000000    
  -7.9308086754849419E-002  0.23691089884216399        0.00000000    
 -0.11844284203067366       0.23852663027602114        0.00000000    
 -0.15775449109009065       0.23905299129443089        0.00000000    
 -0.19581638098978799       0.24143730553874032        0.00000000    
 -0.23399799467516849       0.24221182696321505        0.00000000    
 -0.26990737544795257       0.24517803819676967        0.00000000    
 -0.30549781003902576       0.24551311878261950        0.00000000    
 -0.33713764818305275       0.24854736122729845        0.00000000    
 -0.36716341952328369       0.24695038285045676        0.00000000    
 -0.39029799837732598       0.24866013271558277        0.00000000    
 -0.40863083946997780       0.24157042481429650        0.00000000    
 -0.41479620676956491       0.23792860398846449        0.00000000    
 -0.40896801601838878       0.21593021645224475        0.00000000    
 -0.38215941031760814       0.19458375977170275        0.00000000    
 -0.32892902382957362       0.13066667510181623        0.00000000    
 -0.24687894847386282        5.4096914927678777E-002   0.00000000    
 -0.11631265993308253      -0.13035698230250115        0.00000000    
  -4.5782096134954757E-002 -0.36406797871495339        0.00000000    
  -3.2081450088058918E-005 -0.61241251663253959        0.00000000    
  -1.9758728750932632E-005 -0.61244180016985572        0.00000000    
  -1.4397673160304338E-005 -0.61245884495518332        0.00000000    
  -4.9308967681818544E-006 -0.61246382039632763        0.00000000    
   6.3733033209017231E-006 -0.61246453479337915        0.00000000    
   1.8632200115781162E-005 -0.61246144045305884        0.00000000    
   3.0891354387227279E-005 -0.61245557436238474        0.00000000    
   4.2195521899463104E-005 -0.61244590015428957        0.00000000    
   5.1662364984756510E-005 -0.61243196494339192        0.00000000    
   5.7023457358377102E-005 -0.61240596172181394        0.00000000    
   6.9346068103361095E-005 -0.61236772004736040        0.00000000    
   4.5817073415781950E-002 -0.36403067683605356        0.00000000    
  0.11634371316104458      -0.13032778856146407        0.00000000    
  0.24690318947798814        5.4119048287137941E-002   0.00000000    
  0.32894813540225826       0.13068504735632400        0.00000000    
  0.38217408315130902       0.19459847876643874        0.00000000    
  0.40897929371836056       0.21594266186836042        0.00000000    
  0.41480479367536754       0.23793874937494164        0.00000000    
  0.40863732664360675       0.24157895822295913        0.00000000    
  0.39030288581498879       0.24866706384552581        0.00000000    
  0.36716702945107121       0.24695612139040235        0.00000000    
  0.33714031813087936       0.24855195334710978        0.00000000    
  0.30549971584451624       0.24551684386029785        0.00000000    
  0.26990874436741830       0.24518095453423630        0.00000000    
  0.23399892411720175       0.24221414126934465        0.00000000    
  0.19581702072900004       0.24143907382429683        0.00000000    
  0.15775489443579271       0.23905437755454190        0.00000000    
  0.11844310048254519       0.23852768418060830        0.00000000    
   7.9308227227641484E-002  0.23691175948214799        0.00000000    
   3.9617284941799773E-002  0.23697073128209617        0.00000000    
   0.0000000000000000       0.23616225453812259        0.00000000    
   0.0000000000000000       0.27425812782035330        0.00000000    
  -3.5203221961584985E-002  0.27369513805671614        0.00000000    
  -7.0099563051532490E-002  0.27477423116841748        0.00000000    
 -0.10488892354658785       0.27458865425852069        0.00000000    
 -0.13869213760689300       0.27610707190948031        0.00000000    
 -0.17214350186934915       0.27589771833344057        0.00000000    
 -0.20371229045627454       0.27750305743136189        0.00000000    
 -0.23434040006750881       0.27642553543760717        0.00000000    
 -0.26175307669424186       0.27726997295763728        0.00000000    
 -0.28691637779084617       0.27359488093007694        0.00000000    
 -0.30675379561778038       0.27176729157459861        0.00000000    
 -0.32160270182718226       0.26182794010476479        0.00000000    
 -0.32778513098325923       0.25291912628465729        0.00000000    
 -0.32359864996401894       0.22856001537310117        0.00000000    
 -0.30618504089768905       0.20205824472403899        0.00000000    
 -0.26917955186016523       0.14464285869222399        0.00000000    
 -0.21758218498148282        7.5781068183982031E-002   0.00000000    
 -0.13662422443128197       -5.4024293599105905E-002   0.00000000    
  -7.6127508816170406E-002 -0.21329751150650192        0.00000000    
  -9.0039519799980251E-003 -0.41878033487432176        0.00000000    
  -2.0129485151291641E-005 -0.61243270246136106        0.00000000    
  -6.2979330599622515E-006 -0.61244776860830885        0.00000000    
  -6.5445713235048897E-007 -0.61246388103706595        0.00000000    
   2.7336061486577578E-006 -0.61247163914054137        0.00000000    
   8.0854357803818199E-006 -0.61247337206469632        0.00000000    
   1.4152617189903097E-005 -0.61247092924540114        0.00000000    
   2.0219842865840471E-005 -0.61246441193544487        0.00000000    
   2.5571855296252547E-005 -0.61245371874698196        0.00000000    
   2.8960024519587977E-005 -0.61243700134943169        0.00000000    
   3.4603822194008013E-005 -0.61241193019463991        0.00000000    
   4.8434746726428457E-005 -0.61238790510365759        0.00000000    
   9.0316253155603606E-003 -0.41874011450692600        0.00000000    
   7.6151654193991433E-002 -0.21326378424333267        0.00000000    
  0.13664492845616172       -5.3996440185846983E-002   0.00000000    
  0.21759828812408968        7.5803450699194710E-002   0.00000000    
  0.26919219043338100       0.14466147073471591        0.00000000    
  0.30619455358423636       0.20207331811370438        0.00000000    
  0.32360584722447983       0.22857253900671656        0.00000000    
  0.32779044722349615       0.25292926219945672        0.00000000    
  0.32160660152120452       0.26183628501130968        0.00000000    
  0.30675661096038803       0.27177397820005217        0.00000000    
  0.28691835694635243       0.27360030113204342        0.00000000    
  0.26175445294010308       0.27727423700590842        0.00000000    
  0.23434130406078335       0.27642892194370694        0.00000000    
  0.20371288094664167       0.27750565454992143        0.00000000    
  0.17214384763874258       0.27589973823098124        0.00000000    
  0.13869234152795359       0.27610858480013895        0.00000000    
  0.10488902062374258       0.27458983327092079        0.00000000    
   7.0099611621349325E-002  0.27477513318766894        0.00000000    
   3.5203236845146965E-002  0.27369591623319794        0.00000000    
   0.0000000000000000       0.27425883267132234        0.00000000    
   0.0000000000000000       0.30635479461310616        0.00000000    
  -3.0321320834707299E-002  0.30712419457804269        0.00000000    
  -6.0489182476977744E-002  0.30641055735520617        0.00000000    
  -8.9979154503609382E-002  0.30723284129718331        0.00000000    
 -0.11893251839679229       0.30622064184841064        0.00000000    
 -0.14641141781535086       0.30671559266326132        0.00000000    
 -0.17271289717080746       0.30455662864291344        0.00000000    
 -0.19648394626602489       0.30377230317827708        0.00000000    
 -0.21790237762864112       0.29875548883650938        0.00000000    
 -0.23530378133967966       0.29467524968381476        0.00000000    
 -0.24818964725073053       0.28341137962704760        0.00000000    
 -0.25501054538393247       0.27185483605166638        0.00000000    
 -0.25350290069470788       0.24756818478874529        0.00000000    
 -0.24367816147417726       0.21990091715832394        0.00000000    
 -0.21960893086668923       0.16923567014119509        0.00000000    
 -0.18762930799795666       0.10848150569234680        0.00000000    
 -0.13564485254525957        8.3617643648653643E-003   0.00000000    
  -9.1485193072413873E-002 -0.11172141475198216        0.00000000    
  -3.4148335958676293E-002 -0.27343279230640571        0.00000000    
  -1.6089831041646942E-002 -0.44382590350743734        0.00000000    
  -1.2282322699572041E-005 -0.61244732278203129        0.00000000    
  -3.0749660943104696E-006 -0.61245618718854833        0.00000000    
   2.6091541970402825E-006 -0.61246679004363680        0.00000000    
   5.3513037882302986E-006 -0.61247486033542797        0.00000000    
   7.3064339000676210E-006 -0.61247745781716689        0.00000000    
   9.6729116275520758E-006 -0.61247527713931793        0.00000000    
   1.2039460714825917E-005 -0.61246849780354173        0.00000000    
   1.3994731303587643E-005 -0.61245694014951813        0.00000000    
   1.6737178513605844E-005 -0.61243991055191360        0.00000000    
   2.2421060995011028E-005 -0.61242034866290485        0.00000000    
   3.1628536510768161E-005 -0.61240252502765402        0.00000000    
   1.6108314405977202E-002 -0.44378418876133724        0.00000000    
   3.4165721737962639E-002 -0.27339593388003891        0.00000000    
   9.1499583897820341E-002 -0.11169025619460128        0.00000000    
  0.13565684803151110        8.3878379572551367E-003   0.00000000    
  0.18763838846866135       0.10850280624341783        0.00000000    
  0.21961593209769129       0.16925326014897599        0.00000000    
  0.24368324163796165       0.21991516066799430        0.00000000    
  0.25350661613296116       0.24757984657374923        0.00000000    
  0.25501313720150198       0.27186419525573879        0.00000000    
  0.24819142169505237       0.28341895368020587        0.00000000    
  0.23530493931631150       0.29468123511365246        0.00000000    
  0.21790307767565456       0.29876024849676552        0.00000000    
  0.19648433735777368       0.30377597528098099        0.00000000    
  0.17271306005226764       0.30455948187866655        0.00000000    
  0.14641145582018364       0.30671772604190894        0.00000000    
  0.11893247170824471       0.30622226780028300        0.00000000    
   8.9979088432156185E-002  0.30723403347584999        0.00000000    
   6.0489115562889717E-002  0.30641149555877911        0.00000000    
   3.0321284769571313E-002  0.30712493940815055        0.00000000    
   0.0000000000000000       0.30635551162950242        0.00000000    
   0.0000000000000000       0.33502273109827369        0.00000000    
  -2.5356293481723424E-002  0.33413499179683598        0.00000000    
  -5.0370346058386986E-002  0.33458279414830761        0.00000000    
  -7.4879483852302406E-002  0.33306083300610378        0.00000000    
  -9.8318033204480390E-002  0.33278568333517372        0.00000000    
 -0.12058736071660039       0.32989989573665174        0.00000000    
 -0.14092636274951184       0.32801392689014724        0.00000000    
 -0.15907180418125361       0.32223261165192640        0.00000000    
 -0.17422244221894106       0.31686536962539813        0.00000000    
 -0.18551734311967708       0.30526278787141459        0.00000000    
 -0.19256789913426986       0.29276138334492224        0.00000000    
 -0.19312165793210276       0.26988060148587306        0.00000000    
 -0.18840970039185145       0.24332393790165097        0.00000000    
 -0.17342788937451439       0.19933972389852070        0.00000000    
 -0.15415478025428217       0.14645564692826932        0.00000000    
 -0.12078581790252159        6.5914052593320893E-002   0.00000000    