 <VTKFile type="UnstructuredGrid" version="0.1" byte_order="BigEndian">
 <UnstructuredGrid>
 <Piece NumberOfPoints="        2601 " NumberOfCells="        2500 ">
 <PointData Scalars="scalars">
 <DataArray type="Float32" NumberOfComponents="3" Name="Velocity" Format="ascii">
   0.0000000000000000        0.0000000000000000        0.00000000    
  -2.8261889904068908E-002   0.0000000000000000        0.00000000    
  -5.6092482500055232E-002   0.0000000000000000        0.00000000    
  -8.3104216753788596E-002   0.0000000000000000        0.00000000    
 -0.10884256482814834        0.0000000000000000        0.00000000    
 -0.13298206015017022        0.0000000000000000        0.00000000    
 -0.15506782517972814        0.0000000000000000        0.00000000    
 -0.17485293423620241        0.0000000000000000        0.00000000    
 -0.19190731875241651        0.0000000000000000        0.00000000    
 -0.20607707603229983        0.0000000000000000        0.00000000    
 -0.21698368097494750        0.0000000000000000        0.00000000    
 -0.22457820725668318        0.0000000000000000        0.00000000    
 -0.22856050111178852        0.0000000000000000        0.00000000    
 -0.22899487235114951        0.0000000000000000        0.00000000    
 -0.22568418736423085        0.0000000000000000        0.00000000    
 -0.21880889181090893        0.0000000000000000        0.00000000    
 -0.20829448847618010        0.0000000000000000        0.00000000    
 -0.19443323588518260        0.0000000000000000        0.00000000    
 -0.17728487138415577        0.0000000000000000        0.00000000    
 -0.15724035628972205        0.0000000000000000        0.00000000    
 -0.13449473544677931        0.0000000000000000        0.00000000    
 -0.10951509241491765        0.0000000000000000        0.00000000    
  -8.2620958052892976E-002   0.0000000000000000        0.00000000    
  -5.4324178866506062E-002   0.0000000000000000        0.00000000    
  -2.5046318522732355E-002   0.0000000000000000        0.00000000    
   4.6938514078237762E-003   0.0000000000000000        0.00000000    
   3.4404762687764531E-002   0.0000000000000000        0.00000000    
   6.3601298133594816E-002   0.0000000000000000        0.00000000    
   9.1759918208894842E-002   0.0000000000000000        0.00000000    
  0.11846789887351630        0.0000000000000000        0.00000000    
  0.14320935307021751        0.0000000000000000        0.00000000    
  0.16567629029264161        0.0000000000000000        0.00000000    
  0.18539730843849564        0.0000000000000000        0.00000000    
  0.20219146498363064        0.0000000000000000        0.00000000    
  0.21566235966177805        0.0000000000000000        0.00000000    
  0.22576636103576797        0.0000000000000000        0.00000000    
  0.23220414246217863        0.0000000000000000        0.00000000    
  0.23506743114218795        0.0000000000000000        0.00000000    
  0.23416700373745933        0.0000000000000000        0.00000000    
  0.22971728197456059        0.0000000000000000        0.00000000    
  0.22164382034520216        0.0000000000000000        0.00000000    
  0.21026300636002121        0.0000000000000000        0.00000000    
  0.19561298076473069        0.0000000000000000        0.00000000    
  0.17808641387801774        0.0000000000000000        0.00000000    
  0.15782670862368867        0.0000000000000000        0.00000000    
  0.13527513068710528        0.0000000000000000        0.00000000    
  0.11066941211174322        0.0000000000000000        0.00000000    
   8.4472061364496004E-002   0.0000000000000000        0.00000000    
   5.7001625502772532E-002   0.0000000000000000        0.00000000    
   2.8716364576212905E-002   0.0000000000000000        0.00000000    
   0.0000000000000000        0.0000000000000000        0.00000000    
   0.0000000000000000        2.8418756591562715E-002   0.00000000    
  -2.8368837379041782E-002   2.8211970692457837E-002   0.00000000    
  -5.6324796176127748E-002   2.7574580701555901E-002   0.00000000    
  -8.3420928345569009E-002   2.6533285722496917E-002   0.00000000    
 -0.10929773787168562        2.5081871878952011E-002   0.00000000    
 -0.13349582208882227        2.3255707661053275E-002   0.00000000    
 -0.15572638335993580        2.1060618640621049E-002   0.00000000    
 -0.17554161729409218        1.8539724350825602E-002   0.00000000    
 -0.19273889786165757        1.5711940733985900E-002   0.00000000    
 -0.20690816745058710        1.2627086135613553E-002   0.00000000    
 -0.21794633380719958        9.3176851647058714E-003   0.00000000    
 -0.22550826497333992        5.8387722839289037E-003   0.00000000    
 -0.22960079381046053        2.2360504093816903E-003   0.00000000    
 -0.22997002974201569       -1.4324432377326743E-003   0.00000000    
 -0.22673869409661698       -5.1095773934770388E-003   0.00000000    
 -0.21976695525491838       -8.7374570008337902E-003   0.00000000    
 -0.20929310452112321       -1.2250797066562581E-002   0.00000000    
 -0.19530764759218130       -1.5595912452687035E-002   0.00000000    
 -0.17815600592339328       -1.8704093715983479E-002   0.00000000    
 -0.15796586262283832       -2.1530564678331972E-002   0.00000000    
 -0.13517195470959523       -2.4008964076696081E-002   0.00000000    
 -0.11003446344386621       -2.6108170220234057E-002   0.00000000    
  -8.3050163621090273E-002  -2.7770263963399367E-002   0.00000000    
  -5.4594896115598215E-002  -2.8981782727827015E-002   0.00000000    
  -2.5192214822681826E-002  -2.9698758907690744E-002   0.00000000    
   4.6942115834143231E-003  -2.9927837428312547E-002   0.00000000    
   3.4554184233044440E-002  -2.9643046500084719E-002   0.00000000    
   6.3872110905345877E-002  -2.8871415617396930E-002   0.00000000    
   9.2191825931047897E-002  -2.7606919482434617E-002   0.00000000    
  0.11898561606082780       -2.5894851311311227E-002   0.00000000    
  0.14388778952913789       -2.3748776352536811E-002   0.00000000    
  0.16639761354533028       -2.1227984885413657E-002   0.00000000    
  0.18626779490647580       -1.8363214620433901E-002   0.00000000    
  0.20305886871904574       -1.5222015736590553E-002   0.00000000    
  0.21665841644008857       -1.1848426661462698E-002   0.00000000    
  0.22671481307213528       -8.3119713438753740E-003   0.00000000    
  0.23325444787588864       -4.6654448851701537E-003   0.00000000    
  0.23603104732137198       -9.7444323960216230E-004   0.00000000    
  0.23520196260584636        2.7039553609533155E-003   0.00000000    
  0.23063485967554040        6.3128693329963280E-003   0.00000000    
  0.22260065231999149        9.7947996529838110E-003   0.00000000    
  0.21108182300954512        1.3104843643415473E-002   0.00000000    
  0.19643892924212045        1.6188075720345876E-002   0.00000000    
  0.17876416461447664        1.9013255794811501E-002   0.00000000    
  0.15848044709530010        2.1530166979711919E-002   0.00000000    
  0.13578030352580320        2.3721554527199280E-002   0.00000000    
  0.11112107956930138        2.5543388005652562E-002   0.00000000    
   8.4783297389803489E-002   2.6991744921954965E-002   0.00000000    
   5.7232097275380450E-002   2.8029891055148682E-002   0.00000000    
   2.8821432241961709E-002   2.8666034905723461E-002   0.00000000    
   0.0000000000000000        2.8871761913376748E-002   0.00000000    
   0.0000000000000000        5.7071453638860292E-002   0.00000000    
  -2.8709030411987843E-002   5.6637141437123201E-002   0.00000000    
  -5.6982125431165057E-002   5.5378463773992019E-002   0.00000000    
  -8.4428120990947680E-002   5.3271530380312675E-002   0.00000000    
 -0.11058650140909432        5.0378817166143355E-002   0.00000000    
 -0.13512890756852114        4.6699252751546190E-002   0.00000000    
 -0.15759295434523260        4.2311681598604524E-002   0.00000000    
 -0.17772932746791884        3.7240268450895668E-002   0.00000000    
 -0.19509902831248482        3.1578378046609207E-002   0.00000000    
 -0.20954628128299851        2.5377171383730836E-002   0.00000000    
 -0.22068266084850749        1.8742145839186822E-002   0.00000000    
 -0.22845816473335701        1.1751746661815946E-002   0.00000000    
 -0.23256259909618318        4.5200392318388424E-003   0.00000000    
 -0.23306052536807781       -2.8492698552875957E-003   0.00000000    
 -0.22974577095712409       -1.0238840831949243E-002   0.00000000    
 -0.22280103082389244       -1.7524672535773143E-002   0.00000000    
 -0.21214505324818861       -2.4593409840860461E-002   0.00000000    
 -0.19807496123382212       -3.1308848620121531E-002   0.00000000    
 -0.18064719084651334       -3.7570569604437672E-002   0.00000000    
 -0.16026051048550730       -4.3240912449816080E-002   0.00000000    
 -0.13711088934009569       -4.8242145363700827E-002   0.00000000    
 -0.11167598003258977       -5.2447389504806430E-002   0.00000000    
  -8.4280605847461165E-002  -5.5810718686595887E-002   0.00000000    
  -5.5449144282553618E-002  -5.8228057073349188E-002   0.00000000    
  -2.5612240441107267E-002  -5.9692069696412976E-002   0.00000000    
   4.6982029438276665E-003  -6.0131396428930409E-002   0.00000000    
   3.4978957569972206E-002  -5.9580214775126650E-002   0.00000000    
   6.4732862535157934E-002  -5.8006078978154289E-002   0.00000000    
   9.3423716425556774E-002  -5.5482825037653262E-002   0.00000000    
  0.12062949356725075       -5.2018513025895080E-002   0.00000000    
  0.14582223075521800       -4.7720025294082112E-002   0.00000000    
  0.16868862763050488       -4.2632956833704792E-002   0.00000000    
  0.18874705501169056       -3.6886851414289719E-002   0.00000000    
  0.20581583026692812       -3.0558228008940310E-002   0.00000000    
  0.21949090158659981       -2.3786833429595231E-002   0.00000000    
  0.22973228793986941       -1.6671347559509286E-002   0.00000000    
  0.23623573593043440       -9.3491514635636163E-003   0.00000000    
  0.23910018547673567       -1.9317856515052374E-003   0.00000000    
  0.23813389642225027        5.4566715432262953E-003   0.00000000    
  0.23356083347422749        1.2700319030469873E-002   0.00000000    
  0.22530587621602566        1.9696514569695633E-002   0.00000000    
  0.21369594384217888        2.6331890412336856E-002   0.00000000    
  0.19876974265027955        3.2530123911265557E-002   0.00000000    
  0.18093027335913930        3.8185441523931815E-002   0.00000000    
  0.16032228880150998        4.3249683328002324E-002   0.00000000    
  0.13739631534620661        4.7628155204876503E-002   0.00000000    
  0.11239200267601904        5.1300323955361112E-002   0.00000000    
   8.5779571408600125E-002   5.4185022420238795E-002   0.00000000    
   5.7880091410962252E-002   5.6287293669716083E-002   0.00000000    
   2.9157871894386275E-002   5.7541516842131685E-002   0.00000000    
   0.0000000000000000        5.7975584114202075E-002   0.00000000    
   0.0000000000000000        8.6151789126209785E-002   0.00000000    
  -2.9261572469930303E-002   8.5527408832553567E-002   0.00000000    
  -5.8102241231068268E-002   8.3601960159897168E-002   0.00000000    
  -8.6064611644764991E-002   8.0456399968590275E-002   0.00000000    
 -0.11278288477785439        7.6070601130279122E-002   0.00000000    
 -0.13778424524255284        7.0551235412082830E-002   0.00000000    
 -0.16077473021803884        6.3914230691596255E-002   0.00000000    
 -0.18129003262414115        5.6289394887087729E-002   0.00000000    
 -0.19912326609560296        4.7732185927923762E-002   0.00000000    
 -0.21384529800354068        3.8392648381117410E-002   0.00000000    
 -0.22534996019732739        2.8367710602714966E-002   0.00000000    
 -0.23327175918450327        1.7823484770425627E-002   0.00000000    
 -0.23761647051806975        6.8974468213712893E-003   0.00000000    
 -0.23811057351692419       -4.2346481740849293E-003   0.00000000    
 -0.23487901454560806       -1.5399775893553931E-002   0.00000000    
 -0.22776558143597270       -2.6421910717162718E-002   0.00000000    
 -0.21701545610398537       -3.7102274565190073E-002   0.00000000    
 -0.20260859042309107       -4.7276941591277613E-002   0.00000000    
 -0.18490301414855773       -5.6735823293064071E-002   0.00000000    
 -0.16402374959848839       -6.5341603672570178E-002   0.00000000    
 -0.14042408741790377       -7.2890737464814004E-002   0.00000000    
 -0.11437044055394083       -7.9287353575527866E-002   0.00000000    
  -8.6383121176006591E-002  -8.4353448176759188E-002   0.00000000    
  -5.6852667677241765E-002  -8.8047242647263338E-002   0.00000000    
  -2.6328930309454102E-002  -9.0233525329527067E-002   0.00000000    
   4.7031243794557987E-003  -9.0932438870083607E-002   0.00000000    
   3.5707427099569214E-002  -9.0064229678019553E-002   0.00000000    
   6.6143414662948929E-002  -8.7711956604243968E-002   0.00000000    
   9.5532987320027643E-002  -8.3857373956845574E-002   0.00000000    
  0.12332310970541129       -7.8639863634170082E-002   0.00000000    
  0.14913314225626156       -7.2101444422467062E-002   0.00000000    
  0.17243965308561968       -6.4424445410304607E-002   0.00000000    
  0.19298929025712563       -5.5703427388282933E-002   0.00000000    
  0.21032455589426233       -4.6145692927591089E-002   0.00000000    
  0.22433624633772892       -3.5886130272062257E-002   0.00000000    
  0.23466022221035315       -2.5137412943116829E-002   0.00000000    
  0.24133426222401214       -1.4060574082255540E-002   0.00000000    
  0.24410485227387710       -2.8554026290547718E-003   0.00000000    
  0.24314671626252177        8.3047135884297078E-003   0.00000000    
  0.23832457137427424        1.9247484821581718E-002   0.00000000    
  0.22992998378807561        2.9798893624672397E-002   0.00000000    
  0.21794552201530160        3.9823905504158201E-002   0.00000000    
  0.20275304911507461        4.9156782913122747E-002   0.00000000    
  0.18444676652248224        5.7704534406126509E-002   0.00000000    
  0.16346944473464436        6.5315896792682279E-002   0.00000000    
  0.14001684973504783        7.1940510195565216E-002   0.00000000    
  0.11456337768802811        7.7445753683135748E-002   0.00000000    
   8.7393856848803880E-002   8.1821544799731263E-002   0.00000000    
   5.8987114137609584E-002   8.4956994000155661E-002   0.00000000    
   2.9702788666882925E-002   8.6878361499776499E-002   0.00000000    
   0.0000000000000000        8.7499400018767617E-002   0.00000000    
   0.0000000000000000       0.11593183351253962        0.00000000    
  -3.0045228144350369E-002  0.11505416506145348        0.00000000    
  -5.9641109479733542E-002  0.11251175402824451        0.00000000    
  -8.8386189062616929E-002  0.10825405609799411        0.00000000    
 -0.11580236753904266       0.10240739661089554        0.00000000    
 -0.14155304065086874        9.4966473509380450E-002   0.00000000    
 -0.16515345384407740        8.6089890763281787E-002   0.00000000    
 -0.18634738709440013        7.5822970473428952E-002   0.00000000    
 -0.20466889484937886        6.4353351568102457E-002   0.00000000    
 -0.21995661406148448        5.1781233862786998E-002   0.00000000    
 -0.23179191075618899        3.8319084009416984E-002   0.00000000    
 -0.24012135008875385        2.4123349685460271E-002   0.00000000    
 -0.24460378667780849        9.4247298286527642E-003   0.00000000    
 -0.24530415616572754       -5.5674586924214630E-003   0.00000000    
 -0.24198812804627720       -2.0614552466457492E-002   0.00000000    
 -0.23484471967162879       -3.5463975626214096E-002   0.00000000    
 -0.22377135566626302       -4.9883698994114031E-002   0.00000000    
 -0.20907946319520943       -6.3594275311837131E-002   0.00000000    
 -0.19081473094487134       -7.6388798098123642E-002   0.00000000    
 -0.16939937036790281       -8.7983253991973029E-002   0.00000000    
 -0.14503170177917157       -9.8216417915573742E-002   0.00000000    
 -0.11822152133702665      -0.10682550042821673        0.00000000    
  -8.9309638152674536E-002 -0.11371450388727405        0.00000000    
  -5.8858847035791306E-002 -0.11866743154968262        0.00000000    
  -2.7327632998751818E-002 -0.12166828783289241        0.00000000    
   4.7116677967913396E-003 -0.12256903184843339        0.00000000    
   3.6719947063842497E-002 -0.12144021868780018        0.00000000    
   6.8162928764220421E-002 -0.11821493685549038        0.00000000    
   9.8465484999807881E-002 -0.11304652259920780        0.00000000    
  0.12717703718374643      -0.10595238955843836        0.00000000    
  0.15373265953670934       -9.7154573402899888E-002   0.00000000    
  0.17780300079472044       -8.6748168514617627E-002   0.00000000    
  0.19887537303216987       -7.5001713693728933E-002   0.00000000    
  0.21676631522880493       -6.2073614453390429E-002   0.00000000    
  0.23104881468983005       -4.8252398651446184E-002   0.00000000    
  0.24169473017073725       -3.3741035914861217E-002   0.00000000    
  0.24838528842135421       -1.8821549375341674E-002   0.00000000    
  0.25124218280200350       -3.7219117642262544E-003   0.00000000    
  0.25006648785490876        1.1305053681655616E-002   0.00000000    
  0.24511189472804762        2.6023882745554127E-002   0.00000000    
  0.23630156236884547        4.0227415645882565E-002   0.00000000    
  0.22399488652473529        5.3686521101737925E-002   0.00000000    
  0.20823240153764519        6.6249125202835046E-002   0.00000000    
  0.18944864784166773        7.7702228406691762E-002   0.00000000    
  0.16779233615613498        8.7951836265667521E-002   0.00000000    
  0.14374196406229017        9.6807537817520370E-002   0.00000000    
  0.11754263162337197       0.10423153054751244        0.00000000    
   8.9687566508098268E-002  0.11006035389113529        0.00000000    
   6.0504950406524656E-002  0.11430754372213350        0.00000000    
   3.0476875567242680E-002  0.11684021208886820        0.00000000    
   0.0000000000000000       0.11771721366463875        0.00000000    
   0.0000000000000000       0.14656031936356229        0.00000000    
  -3.1035905005979442E-002  0.14550681236157392        0.00000000    
  -6.1635922381722538E-002  0.14225500544035122        0.00000000    
  -9.1322693265106059E-002  0.13694265515268067        0.00000000    
 -0.11971880561398572       0.12953108838290006        0.00000000    
 -0.14632519557107104       0.12019984480653069        0.00000000    
 -0.17083829776096335       0.10897003485089693        0.00000000    
 -0.19276082990473803        9.6059291779879374E-002   0.00000000    
 -0.21187769687280270        8.1555404986628791E-002   0.00000000    
 -0.22772096497510144        6.5710167758369131E-002   0.00000000    
 -0.24017813815312578        4.8682619988752257E-002   0.00000000    
 -0.24884163972985787        3.0752754614877371E-002   0.00000000    
 -0.25371451194625311        1.2150633707111905E-002   0.00000000    
 -0.25448204080126857       -6.8254642287200245E-003   0.00000000    
 -0.25127275292565726       -2.5881862922578054E-002   0.00000000    
 -0.24389548014920892       -4.4717346322169983E-002   0.00000000    
 -0.23260839287152005       -6.2990779578379896E-002   0.00000000    
 -0.21736832734161626       -8.0419152729685875E-002   0.00000000    
 -0.19855819581793749       -9.6638784451298546E-002   0.00000000    
 -0.17629635348822129      -0.11141047054678595        0.00000000    
 -0.15107363245718636      -0.12437959097740689        0.00000000    
 -0.12316857019969754      -0.13537757006743076        0.00000000    
  -9.3149852247450593E-002 -0.14409303538144866        0.00000000    
  -6.1438156617412365E-002 -0.15045138680391462        0.00000000    
  -2.8637885016035442E-002 -0.15421581821381547        0.00000000    
   4.7218121365909848E-003 -0.15542049941719668        0.00000000    
   3.8050981359946362E-002 -0.15392619960617110        0.00000000    
   7.0757168298970025E-002 -0.14987812457802818        0.00000000    
  0.10231667361107040      -0.14324539642111539        0.00000000    
  0.13212406014459321      -0.13427245445544894        0.00000000    
  0.15976798140608583      -0.12303405211717219        0.00000000    
  0.18467846596415521      -0.10984951561779191        0.00000000    
  0.20659039474557572       -9.4884667606359718E-002   0.00000000    
  0.22500984585173275       -7.8501053844790364E-002   0.00000000    
  0.23983546158075508       -6.0933074447172123E-002   0.00000000    
  0.25067839001271719       -4.2549204033081468E-002   0.00000000    
  0.25760130195769343       -2.3626851449968747E-002   0.00000000    
  0.26033689871140614       -4.5091008248460910E-003   0.00000000    
  0.25909695970931218        1.4507876694006477E-002   0.00000000    
  0.25374102880637789        3.3131583762331739E-002   0.00000000    
  0.24460401968499054        5.1067056112009103E-002   0.00000000    
  0.23166913493062422        6.8088441233660715E-002   0.00000000    
  0.21536230138788884        8.3916523602805049E-002   0.00000000    
  0.19578177406257141        9.8399111027847000E-002   0.00000000    
  0.17341075453035545       0.11128228486406483        0.00000000    
  0.14845107054360551       0.12248714529981909        0.00000000    
  0.12141124506557185       0.13179108098369408        0.00000000    
   9.2583925656606419E-002  0.13918318797957518        0.00000000    
   6.2474774873250448E-002  0.14447647651986842        0.00000000    
   3.1453781133104361E-002  0.14772034787122976        0.00000000    
   0.0000000000000000       0.14876773458358164        0.00000000    
   0.0000000000000000       0.17834659243270748        0.00000000    
  -3.2252082662004203E-002  0.17700852696137803        0.00000000    
  -6.4034217651289041E-002  0.17313544320618734        0.00000000    
  -9.4929599373729426E-002  0.16664436999398616        0.00000000    
 -0.12443216699337972       0.15772805351038630        0.00000000    
 -0.15219308475334617       0.14637018739776081        0.00000000    
 -0.17769090279879216       0.13281061249492340        0.00000000    
 -0.20065881764946128       0.11710916113229827        0.00000000    
 -0.22058550798568163        9.9549092938081229E-002   0.00000000    
 -0.23730043628986444        8.0274676215723081E-002   0.00000000    
 -0.25033294480012197        5.9607793218950392E-002   0.00000000    
 -0.25962318669966439        3.7781324863582780E-002   0.00000000    
 -0.26477561032230923        1.5147359296422238E-002   0.00000000    
 -0.26585444202630876       -7.9758292561059492E-003   0.00000000    
 -0.26257482705660390       -3.1220400741801199E-002   0.00000000    
 -0.25513479099385833       -5.4196117338980047E-002   0.00000000    
 -0.24339251298502673       -7.6541373849619954E-002   0.00000000    
 -0.22768216822039566       -9.7818968749602928E-002   0.00000000    
 -0.20802854322738767      -0.11770272494979814        0.00000000    
 -0.18489290434563130      -0.13574401125620339        0.00000000    
 -0.15847596973516506      -0.15168570591137875        0.00000000    
 -0.12934255972026662      -0.16510992740215605        0.00000000    
  -9.7860474032774022E-002 -0.17586148168846391        0.00000000    
  -6.4659383998697556E-002 -0.18359572615723607        0.00000000    
  -3.0246254587538719E-002 -0.18828487987509493        0.00000000    
   4.7355489949147938E-003 -0.18969293848718063        0.00000000    
   3.9683962176932590E-002 -0.18793134294363889        0.00000000    
   7.3999393369631683E-002 -0.18289459936847846        0.00000000    
  0.10703855142072063      -0.17482758499589574        0.00000000    
  0.13830100601897771      -0.16376010700870608        0.00000000    
  0.16715769965699070      -0.15004701446537463        0.00000000    
  0.19325213805652713      -0.13384147622356254        0.00000000    
  0.21601862192699611      -0.11557111965429771        0.00000000    
  0.23527232550694921       -9.5487756479485569E-002   0.00000000    
  0.25054803050710084       -7.4047692543291063E-002   0.00000000    
  0.26184047716633335       -5.1569961024877445E-002   0.00000000    
  0.26880767562918484       -2.8496204867422281E-002   0.00000000    
  0.27161314200720421       -5.1808105360794986E-003   0.00000000    
  0.27004728374045694        1.7985383672912504E-002   0.00000000    
  0.26441712466406997        4.0640166765525593E-002   0.00000000    
  0.25464402116485524        6.2468585728531215E-002   0.00000000    
  0.24114448872951014        8.3121328809335232E-002   0.00000000    
  0.22396254299659585       0.10237241530220086        0.00000000    
  0.20358710786283962       0.11989918178969494        0.00000000    
  0.18017314566422671       0.13556719583279184        0.00000000    
  0.15424634625424480       0.14908871772966223        0.00000000    
  0.12605982751863687       0.16041585276757794        0.00000000    
   9.6144654819290659E-002  0.16930090830549782        0.00000000    
   6.4839276160576956E-002  0.17577328563644987        0.00000000    
   3.2654129159431965E-002  0.17962967949708247        0.00000000    
   0.0000000000000000       0.18096631325105356        0.00000000    
   0.0000000000000000       0.21138563067835048        0.00000000    
  -3.3664062126073542E-002  0.20988563350457706        0.00000000    
  -6.6872572003113473E-002  0.20524898153049717        0.00000000    
  -9.9120699765452375E-002  0.19767434115480095        0.00000000    
 -0.13001623584053873       0.18709618604590850        0.00000000    
 -0.15902234491803985       0.17376908169963842        0.00000000    
 -0.18582300776909377       0.15771019909155337        0.00000000    
 -0.20987169915368883       0.13922618077046203        0.00000000    
 -0.23094189310380647       0.11842895758865681        0.00000000    
 -0.24850590976598852        9.5673756530655768E-002   0.00000000    
 -0.26244135613894831        7.1176667790010681E-002   0.00000000    
 -0.27227410595017587        4.5335442002071416E-002   0.00000000    
 -0.27800148670022506        1.8473046533752771E-002   0.00000000    
 -0.27924198803128741       -8.9821834599322966E-003   0.00000000    
 -0.27612715368337720       -3.6608495852146712E-002   0.00000000    
 -0.26840758362928913       -6.3967628347328234E-002   0.00000000    
 -0.25635869176928938       -9.0561032706379219E-002   0.00000000    
 -0.23989724859961789      -0.11597109782926815        0.00000000    
 -0.21944241476724460      -0.13965905469155360        0.00000000    
 -0.19509886241893093      -0.16126687274685486        0.00000000    
 -0.16741471232316191      -0.18026392912281408        0.00000000    
 -0.13668569790564178      -0.19639412862563907        0.00000000    
 -0.10355640871682312      -0.20918865533701017        0.00000000    
  -6.8494682164457282E-002 -0.21853136909773804        0.00000000    
  -3.2191938204226313E-002 -0.22406511030162521        0.00000000    
   4.7521505553045741E-003 -0.22583860040528725        0.00000000    
   4.1661063022347573E-002 -0.22364300667021914        0.00000000    
   7.7859300713959065E-002 -0.21769660452884695        0.00000000    
  0.11275012899807334      -0.20795556616640071        0.00000000    
  0.14564486667320997      -0.19478931811415848        0.00000000    
  0.17608398141636913      -0.17831361173686822        0.00000000    
  0.20342477259479408      -0.15901010853246036        0.00000000    
  0.22738549915163125      -0.13712969776863945        0.00000000    
  0.24741682060845088      -0.11321420340415828        0.00000000    
  0.26343302911362054       -8.7613159120084827E-002   0.00000000    
  0.27500921376004778       -6.0873125755746965E-002   0.00000000    
  0.28225106187045473       -3.3402086706215403E-002   0.00000000    
  0.28487255734278488       -5.7018905493570540E-003   0.00000000    
  0.28314716778755644        2.1797711511461714E-002   0.00000000    
  0.27692863078168445        4.8676535007834421E-002   0.00000000    
  0.26662217182901254        7.4511779941070333E-002   0.00000000    
  0.25221314139043549        9.8986697469669135E-002   0.00000000    
  0.23419722527876091       0.12170490848905377        0.00000000    
  0.21267880390265592       0.14246054511203124        0.00000000    
  0.18820345818077494       0.16089514043316144        0.00000000    
  0.16098096503229403       0.17691006568747980        0.00000000    
  0.13157095976249533       0.19019102881697611        0.00000000    
  0.10027571102251165       0.20073615369556433        0.00000000    
   6.7639633139925395E-002  0.20827949678907837        0.00000000    
   3.4045549414779309E-002  0.21290269907129794        0.00000000    
   0.0000000000000000       0.21439297225202397        0.00000000    
   0.0000000000000000       0.24602312839521642        0.00000000    
  -3.5289672780938940E-002  0.24420187069570698        0.00000000    
  -7.0084489585765880E-002  0.23893607102172990        0.00000000    
 -0.10395017837211371       0.23010106821372481        0.00000000    
 -0.13634462923047605       0.21795944592044467        0.00000000    
 -0.16690529265389142       0.20247259432796777        0.00000000    
 -0.19506085515854685       0.18396291181847027        0.00000000    
 -0.22053185614717566       0.16249316041918463        0.00000000    
 -0.24274269586584743       0.13844301160780090        0.00000000    
 -0.26151042250317669       0.11199144581388649        0.00000000    
 -0.27628810134807896        8.3572103723281277E-002   0.00000000    
 -0.28700544718342413        5.3490101718659644E-002   0.00000000    
 -0.29318465817734107        2.2224978559360620E-002   0.00000000    
 -0.29488595549051322       -9.7923168376294056E-003   0.00000000    
 -0.29174577007352759       -4.2053382241489259E-002   0.00000000    
 -0.28397112529879642       -7.4016956782778254E-002   0.00000000    