 <VTKFile type="UnstructuredGrid" version="0.1" byte_order="BigEndian">
 <UnstructuredGrid>
 <Piece NumberOfPoints="        2601 " NumberOfCells="        2500 ">
 <PointData Scalars="scalars">
 <DataArray type="Float32" NumberOfComponents="3" Name="Velocity" Format="ascii">
   0.0000000000000000        0.0000000000000000        0.00000000    
  -6.6499229781382341E-002   0.0000000000000000        0.00000000    
 -0.13458057373130486        0.0000000000000000        0.00000000    
 -0.20644304419686721        0.0000000000000000        0.00000000    
 -0.28406974978320909        0.0000000000000000        0.00000000    
 -0.37406268108821139        0.0000000000000000        0.00000000    
 -0.47943314535440623        0.0000000000000000        0.00000000    
 -0.70466309055334941        0.0000000000000000        0.00000000    
  -1.2683649902606846        0.0000000000000000        0.00000000    
  -2.3861718967212844        0.0000000000000000        0.00000000    
  -89.954654579968278        0.0000000000000000        0.00000000    
  -64.455018056463516        0.0000000000000000        0.00000000    
   4.2926033320914074        0.0000000000000000        0.00000000    
  -11.741298401683510        0.0000000000000000        0.00000000    
   2.5667554430160191        0.0000000000000000        0.00000000    
   2.6967852767360672        0.0000000000000000        0.00000000    
   16.520607049199715        0.0000000000000000        0.00000000    
   11.160193662087924        0.0000000000000000        0.00000000    
 -0.69140505155735243        0.0000000000000000        0.00000000    
  -12.399643280623769        0.0000000000000000        0.00000000    
  -18.353472202072663        0.0000000000000000        0.00000000    
  -9.5026870243126442        0.0000000000000000        0.00000000    
  0.67964997623469048        0.0000000000000000        0.00000000    
  -2.0713748740920988        0.0000000000000000        0.00000000    
   12.527748365075217        0.0000000000000000        0.00000000    
   17.722210662475202        0.0000000000000000        0.00000000    
   2.3923585225145203        0.0000000000000000        0.00000000    
  -2.3546829243870464        0.0000000000000000        0.00000000    
  -17.450291620720726        0.0000000000000000        0.00000000    
  -13.216607150286672        0.0000000000000000        0.00000000    
   3.0760748457693246        0.0000000000000000        0.00000000    
  -2.3218059540561002        0.0000000000000000        0.00000000    
   20.842666921238834        0.0000000000000000        0.00000000    
   28.903645658211421        0.0000000000000000        0.00000000    
   3.7198244161953982        0.0000000000000000        0.00000000    
  -3.3543117303477050        0.0000000000000000        0.00000000    
  -27.974725286493538        0.0000000000000000        0.00000000    
  -19.242770174503711        0.0000000000000000        0.00000000    
   3.0381477149170806        0.0000000000000000        0.00000000    
   2.0360821858400424        0.0000000000000000        0.00000000    
   6.3182892352067022        0.0000000000000000        0.00000000    
   1.7862615939215394        0.0000000000000000        0.00000000    
  0.88455407286436494        0.0000000000000000        0.00000000    
  0.60019133427311189        0.0000000000000000        0.00000000    
  0.46296123282473889        0.0000000000000000        0.00000000    
  0.36552659866368964        0.0000000000000000        0.00000000    
  0.27917199471585269        0.0000000000000000        0.00000000    
  0.20379818926508125        0.0000000000000000        0.00000000    
  0.13290317683616784        0.0000000000000000        0.00000000    
   6.5808997951126449E-002   0.0000000000000000        0.00000000    
   0.0000000000000000        0.0000000000000000        0.00000000    
   0.0000000000000000        6.5362279879994656E-002   0.00000000    
  -6.5016920068830281E-002   6.6153869968183412E-002   0.00000000    
 -0.13162011594188136        6.8530669852729945E-002   0.00000000    
 -0.20142026850780595        7.3131953176640965E-002   0.00000000    
 -0.27737696938959644        8.0451453289281410E-002   0.00000000    
 -0.36236373437846614        9.4528243002215989E-002   0.00000000    
 -0.46948066295409713       0.11795914983697943        0.00000000    
 -0.59303040585040845       0.23082053825490051        0.00000000    
 -0.66476252721831364       0.40461348281328813        0.00000000    
 -0.57162873618333720       0.62005963272673603        0.00000000    
   42.345777101444114        44.031017213100043        0.00000000    
   12.778349804646055       -39.963226439632258        0.00000000    
  -17.248511277735982        1.2424661336162917        0.00000000    
   4.7800417439948637       -7.2371174214068326        0.00000000    
  -4.2403798639228043        1.9494851847803283        0.00000000    
  0.20084675125281617       -6.5207416335135662        0.00000000    
   4.2269830401026773       -11.329216427646752        0.00000000    
   17.346567021483573        3.5700458335363616        0.00000000    
   1.1288868560791061        24.499233045659256        0.00000000    
  -19.763516243981936        8.1014082836180155        0.00000000    
  -9.5237609938907326       -12.387334612122190        0.00000000    
  0.26489267292814178       -6.2521042323136413        0.00000000    
  -2.5044824964493899       -1.1608575987206557        0.00000000    
   1.9103087712904365      -0.50290881855223146        0.00000000    
  -2.5637667827234059       -9.6221388664669494        0.00000000    
   13.639833099988435       -11.775923313508546        0.00000000    
   19.271261742455934        21.474346811135042        0.00000000    
  -19.100456213030043        21.644412591383958        0.00000000    
  -13.799873023690386       -11.849387084259153        0.00000000    
   2.9404582748253127       -9.1246286845604043        0.00000000    
  -3.0029770272846377       -1.2246180092594354        0.00000000    
   4.3672392192893126      -0.74771743736011953        0.00000000    
  -3.1976516944369067       -14.851864524087539        0.00000000    
   22.099528199949084       -18.506294107145358        0.00000000    
   31.191773809005692        34.597869740221505        0.00000000    
  -30.688564033621699        34.356604249072035        0.00000000    
  -21.246292439340312       -19.178462287091431        0.00000000    
   4.7997475167973427       -15.599532780909223        0.00000000    
  -2.0394230535646187       0.15778546196841053        0.00000000    
   2.3246043773422209       -3.5197473636688494        0.00000000    
 -0.92897770790696355        2.4911223996633129        0.00000000    
  0.56012879542129368       0.55179873839001592        0.00000000    
  0.66476814348892277       0.24526943458927963        0.00000000    
  0.55882524133524591       0.14503620615229348        0.00000000    
  0.44687955152364139       0.10413958510496381        0.00000000    
  0.35153723236531559        8.8637368212028472E-002   0.00000000    
  0.27162988738268762        7.7624580716212088E-002   0.00000000    
  0.19779940909187160        7.1579703023274946E-002   0.00000000    
  0.12971739777222382        6.7397320723249596E-002   0.00000000    
   6.4072280876778798E-002   6.5341975055247498E-002   0.00000000    
   0.0000000000000000        6.4539303770686715E-002   0.00000000    
   0.0000000000000000       0.12795881122722508        0.00000000    
  -6.0770183381127510E-002  0.12934444206889167        0.00000000    
 -0.12272124890799345       0.13389435914989795        0.00000000    
 -0.18722464839364802       0.14207181592896395        0.00000000    
 -0.25607117506536620       0.15631481808829759        0.00000000    
 -0.33146164850933624       0.17904211663376249        0.00000000    
 -0.41821615408042828       0.22731671034965073        0.00000000    
 -0.49133472641880493       0.31813129297440484        0.00000000    
 -0.52327120592661513       0.42097132896726830        0.00000000    
 -0.48568852519123085       0.47298531480084188        0.00000000    
  -5.0900217292972325E-002  0.82589738550475478        0.00000000    
   16.387071443753584        16.371349023861253        0.00000000    
   11.839997554322199       -20.518174357888153        0.00000000    
  -2.2901678282394298        6.6251354310746056        0.00000000    
 -0.34015144865775582       -4.8423624391935824        0.00000000    
  -4.6545468682236057       0.14427479499904755        0.00000000    
  -15.463649028185918       -11.211266984877604        0.00000000    
  -25.663997894916410       0.53286127626017199        0.00000000    
  -3.3691210502259019        21.459220923815046        0.00000000    
   23.733685220095026        4.9310172353341732        0.00000000    
   16.842668814470766       -12.565682408154528        0.00000000    
   2.7811291496198551       -1.8008704381223770        0.00000000    
  0.73390591716804809      -0.79549299093480674        0.00000000    
  -1.9716708141784431       -2.5774879625990783        0.00000000    
  -4.4777286776714815      -0.56742630477064893        0.00000000    
  -22.861228857721475       -18.650735577737425        0.00000000    
  -20.458438112557854        20.314939687867067        0.00000000    
   20.494161666393566        20.222937891321866        0.00000000    
   23.002356897032982       -18.236690804046368        0.00000000    
   4.3906480660418605      -0.86594743217261783        0.00000000    
   2.2932189609350928       -1.4424348542968981        0.00000000    
  -2.0810459655435234       -3.5258519122967296        0.00000000    
  -6.1239337954266935      -0.46595130540728941        0.00000000    
  -35.664170527869992       -28.649150487658684        0.00000000    
  -33.155447627620333        33.139757611557926        0.00000000    
   33.232395450205999        31.307211142644181        0.00000000    
   38.175817142046348       -30.514762466653170        0.00000000    
   7.8187845913282272        4.7759993339184535E-002   0.00000000    
   3.5271750739550338       -4.3587272244052677        0.00000000    
 -0.52570436189043468       0.68561732775427919        0.00000000    
  0.22545617405076265       0.78817925769573038        0.00000000    
  0.59357086804731329       0.39752068303134197        0.00000000    
  0.55080200193658313       0.33767700798975442        0.00000000    
  0.46909607863531799       0.24027745820394289        0.00000000    
  0.39289459114213554       0.19704551035565016        0.00000000    
  0.31758581468327624       0.16638253857618709        0.00000000    
  0.24735202573282747       0.15002054428297854        0.00000000    
  0.18221224207115830       0.13815400140690404        0.00000000    
  0.11971397649825738       0.13140329923016111        0.00000000    
   5.9453167548484724E-002  0.12724192239157162        0.00000000    
   0.0000000000000000       0.12616480485766798        0.00000000    
   0.0000000000000000       0.18512130109677127        0.00000000    
  -5.4067004500311801E-002  0.18701914007880321        0.00000000    
 -0.10872208029497069       0.19282580245951136        0.00000000    
 -0.16473366635658007       0.20365535816458338        0.00000000    
 -0.22218479866549931       0.22102893483123251        0.00000000    
 -0.28221064476152957       0.24974431942867201        0.00000000    
 -0.33600319978234910       0.29716156814446926        0.00000000    
 -0.37122312249792094       0.35662493023141684        0.00000000    
 -0.36988615628003552       0.41307720499823636        0.00000000    
 -0.33398028183369272       0.40739088358654146        0.00000000    
 -0.25868884599848946       0.38141207298330498        0.00000000    
 -0.14831012623087783       0.26748395556633975        0.00000000    
  -9.4827022065194971E-002   7.9281495812842578E-002   0.00000000    
  -1.4869104014890401E-002   7.7887042067069714E-002   0.00000000    
  -5.0690549653666372E-002 -0.20930898399113551        0.00000000    
 -0.13247969208791643       -9.2594098029827140E-002   0.00000000    
  -9.7878140748124440E-002 -0.19989748307772970        0.00000000    
 -0.11752392093758122      -0.25851357843702616        0.00000000    
  -2.0685083994345706E-002 -0.14111990303836824        0.00000000    
 -0.10110671782374504      -0.49102657420526313        0.00000000    
 -0.19121904414375793      -0.16250986656662861        0.00000000    
  -7.6495505339760447E-002 -0.25722685350516583        0.00000000    
  -5.9506463490011319E-002 -0.30890238481853927        0.00000000    
  -5.9593164775448064E-002 -0.35841513593492524        0.00000000    
  -2.9500327689457023E-002 -0.31053410489853522        0.00000000    
  -9.2642060268542534E-002 -0.46098586483694576        0.00000000    
 -0.10298655387176806      -0.26725627647040640        0.00000000    
   3.1324196263013269E-002 -0.28177667336871765        0.00000000    
   8.7881174556441385E-002 -0.29672844816400551        0.00000000    
  0.14507930168914623      -0.25139908406003575        0.00000000    
  0.35254266793683819      -0.16701746342787857        0.00000000    
  0.38513981161084021      -0.45960152022463424        0.00000000    
  0.73344915698061686       0.16237678715115067        0.00000000    
   1.2792850154315942      -0.28307770608184191        0.00000000    
   2.6019295943095608       0.94231735094206104        0.00000000    
   1.9319452287057162       -2.2132073089285718        0.00000000    
   6.9703728152632732E-002  -7.5524206281456674E-002   0.00000000    
  0.11661127276313892       -8.1353260774271616E-002   0.00000000    
  0.12056880137037092        5.8038018583757442E-002   0.00000000    
  0.17284510649958490       0.26945521563032948        0.00000000    
  0.25917107572866371       0.36685486464808609        0.00000000    
  0.34057533544021917       0.36932612236707918        0.00000000    
  0.38209414405557740       0.36712162614733401        0.00000000    
  0.36936036148601015       0.30527254591525144        0.00000000    
  0.31833902378332551       0.25927324783790556        0.00000000    
  0.26660304518092698       0.23119955615307011        0.00000000    
  0.21193669128252027       0.21010366955283771        0.00000000    
  0.15797752933573012       0.19716982174350181        0.00000000    
  0.10479656071296339       0.18806671308724390        0.00000000    
   5.2199613846255967E-002  0.18343626434902982        0.00000000    
   0.0000000000000000       0.18162324429301710        0.00000000    
   0.0000000000000000       0.23484939603702326        0.00000000    
  -4.5494324178627768E-002  0.23685237381556096        0.00000000    
  -9.0985657763280117E-002  0.24313897810012858        0.00000000    
 -0.13601377154059266       0.25438188236092618        0.00000000    
 -0.18022671825740194       0.27196648965864034        0.00000000    
 -0.21980564705959910       0.29841153949748606        0.00000000    
 -0.24908782973741023       0.33156908577231503        0.00000000    
 -0.25898632526119619       0.36733583084098842        0.00000000    
 -0.24108468230539384       0.38312769521321272        0.00000000    
 -0.20691332726985182       0.36726316388784142        0.00000000    
 -0.16083579295551223       0.30017082253091226        0.00000000    
 -0.11418343669679612       0.19169412999032148        0.00000000    
  -9.3471488763593943E-002   8.0876269288998742E-002   0.00000000    
  -8.5148327250913272E-002  -1.1988810976674105E-002   0.00000000    
  -7.9062186644929866E-002  -8.9697825914543020E-002   0.00000000    
  -7.1794015153797436E-002 -0.13768428523847892        0.00000000    
  -6.4644237518090480E-002 -0.19655862484426301        0.00000000    
  -6.6838540808862881E-002 -0.24001236100681744        0.00000000    
  -6.1165658933345836E-002 -0.26213283928644365        0.00000000    
  -5.9155934094982411E-002 -0.29160172973000165        0.00000000    
  -5.6830030785453262E-002 -0.27414828803104430        0.00000000    
  -4.0637223702380085E-002 -0.27650477792909323        0.00000000    
  -3.0228665207273617E-002 -0.31702206073946498        0.00000000    
  -2.9858530037558902E-002 -0.35057889415643112        0.00000000    
  -1.7346398613230569E-002 -0.36097531518715442        0.00000000    
   8.0281143923876148E-003 -0.37277743499060956        0.00000000    
   2.1522042694292299E-002 -0.35861414101524097        0.00000000    
   3.3134222491597740E-002 -0.33634173875965517        0.00000000    
   4.8291088431428368E-002 -0.31387722700642040        0.00000000    
   6.3045274010238503E-002 -0.30620261792928044        0.00000000    
   7.0998691052188659E-002 -0.32763071284836714        0.00000000    
   7.1722486748436218E-002 -0.33230921019359017        0.00000000    
   8.0858175331303531E-002 -0.32236055683250753        0.00000000    
   8.0404909345537665E-002 -0.34372295457042173        0.00000000    
   8.0882382939751210E-002 -0.32015945303908594        0.00000000    
   7.6438579635094733E-002 -0.27630233614843391        0.00000000    
   7.4884043145841211E-002 -0.14863314202366329        0.00000000    
   8.7513344571414423E-002  -6.7781171068178159E-002   0.00000000    
   8.6182650127365923E-002   4.1839094518060782E-002   0.00000000    
  0.11559928138263859       0.20396120331042905        0.00000000    
  0.17120288835034453       0.29041930077029743        0.00000000    
  0.21008723685685796       0.32547307802493269        0.00000000    
  0.23832659286581523       0.34121650586306651        0.00000000    
  0.25270399830066970       0.32953404333222824        0.00000000    
  0.23931461997421755       0.29942246644813914        0.00000000    
  0.20684847828484659       0.27525245783255231        0.00000000    
  0.16973771640120613       0.25782788365345471        0.00000000    
  0.12864150008965450       0.24450098589925801        0.00000000    
   8.6359618001984037E-002  0.23619839964002132        0.00000000    
   4.3293008376954295E-002  0.23096813428608234        0.00000000    
   0.0000000000000000       0.22958399657728873        0.00000000    
   0.0000000000000000       0.27563481349444213        0.00000000    
  -3.5918103176865078E-002  0.27747938371177061        0.00000000    
  -7.1092814202049451E-002  0.28317801281188126        0.00000000    
 -0.10467986131892029       0.29295800854148829        0.00000000    
 -0.13458824922561841       0.30751169809969509        0.00000000    
 -0.15777044452989883       0.32562745516105301        0.00000000    
 -0.16970916879052800       0.34557407704532417        0.00000000    
 -0.16467743230328147       0.35819759860276501        0.00000000    
 -0.14484314410911847       0.35452999629970128        0.00000000    
 -0.10805140388116589       0.32489776753627853        0.00000000    
  -6.7107512325711882E-002  0.25551479301110380        0.00000000    
  -4.1690165064197711E-002  0.16428045598836960        0.00000000    
  -2.6011117406730649E-002   7.1898947699221699E-002   0.00000000    
  -2.0874506725510136E-002  -1.6471261581556262E-002   0.00000000    
  -2.4120204947766444E-002  -8.8055817693990665E-002   0.00000000    
  -2.5535549986115225E-002 -0.14517911991237017        0.00000000    
  -2.6841215431808112E-002 -0.19490790236080802        0.00000000    
  -3.0258495868071420E-002 -0.23605149976285586        0.00000000    
  -3.5052362437897257E-002 -0.26697271583646504        0.00000000    
  -4.0632088779224890E-002 -0.28319185167731731        0.00000000    
  -3.9074240045949588E-002 -0.28644191812684122        0.00000000    
  -2.4510265836637044E-002 -0.29496792912583086        0.00000000    
  -1.1162775530181685E-002 -0.32231495834454182        0.00000000    
  -5.9661250570918114E-003 -0.35085278219423616        0.00000000    
  -1.8704180064799279E-003 -0.37730926562444594        0.00000000    
   2.4568508256206864E-003 -0.38614526639216179        0.00000000    
   1.0772814865883152E-002 -0.36705620195602540        0.00000000    
   2.0589881483322147E-002 -0.34932892423380024        0.00000000    
   3.3996595827689928E-002 -0.32945362181670657        0.00000000    
   5.1323258821803663E-002 -0.32270707169209772        0.00000000    
   6.1217332505125809E-002 -0.32897374981109134        0.00000000    
   6.2330162533419192E-002 -0.33280279895563275        0.00000000    
   6.3250230152147272E-002 -0.33192272427236535        0.00000000    
   6.0154517066442752E-002 -0.33061180805939161        0.00000000    
   4.0545455543909668E-002 -0.31413901162218383        0.00000000    
   1.5526536964055884E-002 -0.25286005568120906        0.00000000    
   7.8040486842098165E-003 -0.16279839772243079        0.00000000    
   9.0395944469448906E-003  -6.7480762558229851E-002   0.00000000    
   1.2148493327383580E-002   3.9760481570970375E-002   0.00000000    
   3.4595922507428073E-002  0.15417575582096640        0.00000000    
   7.5897461375567299E-002  0.24329960242257928        0.00000000    
  0.11609980709252540       0.29350608214773077        0.00000000    
  0.14366009824667145       0.31738385457540175        0.00000000    
  0.15881645652853912       0.32383293090135956        0.00000000    
  0.16065616760187404       0.31667324613023357        0.00000000    
  0.14826540162660368       0.30285858581327058        0.00000000    
  0.12524318286588629       0.29035473631518721        0.00000000    
   9.7577926774642970E-002  0.28073560563848055        0.00000000    
   6.6354679460285781E-002  0.27346890930095746        0.00000000    
   3.3599160036317008E-002  0.26951975367231235        0.00000000    
   0.0000000000000000       0.26792454560249024        0.00000000    
   0.0000000000000000       0.30684798770356775        0.00000000    
  -2.6116158259203708E-002  0.30830047093691426        0.00000000    
  -5.1113715266335284E-002  0.31252919361726300        0.00000000    
  -7.3519110564667534E-002  0.31959927014950396        0.00000000    
  -9.1366470433485711E-002  0.32862618426542550        0.00000000    
 -0.10217647186447040       0.33850516572879863        0.00000000    
 -0.10256507014204992       0.34502368901408287        0.00000000    
  -9.2009554204035948E-002  0.34316073420702409        0.00000000    
  -6.8678210907423404E-002  0.32640122920309089        0.00000000    
  -3.8484113366775013E-002  0.28604069686271000        0.00000000    
  -9.7308760960911258E-003  0.22467473485710635        0.00000000    
   1.3115927630030246E-002  0.14685636315344516        0.00000000    
   2.3580232757532120E-002   6.3179687748088617E-002   0.00000000    
   2.5146222542919316E-002  -1.4454602097941700E-002   0.00000000    
   2.1742366186015730E-002  -8.3422922599127231E-002   0.00000000    
   1.5062972252588116E-002 -0.14171727603610018        0.00000000    
   7.9902877961771090E-003 -0.18999139633522677        0.00000000    
   3.6284630842427413E-004 -0.22992328386493774        0.00000000    
  -8.1066198397250645E-003 -0.25983759901652270        0.00000000    
  -1.3817360274519498E-002 -0.27903650172158773        0.00000000    
  -1.3085039505251674E-002 -0.29288743758534230        0.00000000    
  -7.3789184237276276E-003 -0.30879250495856442        0.00000000    
   2.2119850257851126E-004 -0.32943798974473115        0.00000000    
   6.4394052556324939E-003 -0.35514460802055181        0.00000000    
   7.8626780590013382E-003 -0.37853641965227697        0.00000000    
   6.7079243226025259E-003 -0.38809062746068462        0.00000000    
   8.9657950963336046E-003 -0.37568467570178782        0.00000000    
   1.6556128017678567E-002 -0.35810785002711715        0.00000000    
   2.6112517455699313E-002 -0.34363779980599168        0.00000000    
   3.5615825648986049E-002 -0.33535286489058580        0.00000000    
   4.1847084951339750E-002 -0.33245328959851950        0.00000000    
   4.2947108903626845E-002 -0.33153611314919551        0.00000000    
   3.7327552656158759E-002 -0.32848992145037353        0.00000000    
   2.3239249495348543E-002 -0.31686059463534383        0.00000000    
   1.9108729971737683E-003 -0.28695278702593024        0.00000000    
  -1.9937971482330168E-002 -0.23317851721872404        0.00000000    
  -3.6756157544495772E-002 -0.15793926184345056        0.00000000    
  -4.3519934171800265E-002  -6.6811667573438788E-002   0.00000000    
  -3.7536079930616910E-002   2.9998633463669166E-002   0.00000000    
  -1.9816004439154163E-002  0.12377009925566973        0.00000000    
   8.9673411621057960E-003  0.20362037451721290        0.00000000    
   4.1352256467655495E-002  0.26059804902911499        0.00000000    
   6.8968442811444555E-002  0.29511541019455795        0.00000000    
   8.7405612719990852E-002  0.31250784709007817        0.00000000    
   9.5733185485726735E-002  0.31783104610074758        0.00000000    
   9.3985587197097042E-002  0.31583915010485880        0.00000000    
   8.3862507400675843E-002  0.31051947057899315        0.00000000    
   6.7108886498892309E-002  0.30498974836589321        0.00000000    
   4.6763097841776562E-002  0.30078380254325343        0.00000000    
   2.3878286354912286E-002  0.29784519133905851        0.00000000    
   0.0000000000000000       0.29707655432519847        0.00000000    
   0.0000000000000000       0.32867510661796595        0.00000000    
  -1.6894191745329575E-002  0.32948370202532340        0.00000000    
  -3.2469979924561659E-002  0.33191930771348344        0.00000000    
  -4.5214509411960209E-002  0.33535908083731086        0.00000000    
  -5.3520453277041795E-002  0.33901967730979471        0.00000000    
  -5.5282181723563056E-002  0.34068340256028340        0.00000000    
  -4.9562045466104716E-002  0.33751391420104154        0.00000000    
  -3.4946352622461006E-002  0.32549930023685292        0.00000000    
  -1.3735785843450999E-002  0.29952075309606430        0.00000000    
   1.0864010361146838E-002  0.25812727922307677        0.00000000    
   3.4315326453924391E-002  0.20038359913189066        0.00000000    
   5.0901734586231207E-002  0.13171428701904264        0.00000000    
   5.9944307835195179E-002   5.8814885504904789E-002   0.00000000    
   6.0851177630349890E-002  -1.2562659436175943E-002   0.00000000    
   5.6022140108361818E-002  -7.7081971382861963E-002   0.00000000    
   4.8151276677800961E-002 -0.13350796988891445        0.00000000    
   3.8443942024722656E-002 -0.18142068337360975        0.00000000    
   2.8165717565714996E-002 -0.22058833088009247        0.00000000    
   1.8795949796318923E-002 -0.25133331808441234        0.00000000    
   1.1994332812803609E-002 -0.27502842523562759        0.00000000    
   8.9391135596443502E-003 -0.29457261558794390        0.00000000    
   9.6170893181877683E-003 -0.31349142379625400        0.00000000    
   1.1894767816684526E-002 -0.33461686633234367        0.00000000    
   1.2572255828471390E-002 -0.35686142619797551        0.00000000    
   1.1410407355169570E-002 -0.37708102580545505        0.00000000    
   9.9798029321437817E-003 -0.38696066314837280        0.00000000    
   1.0639994663463393E-002 -0.37973270251972896        0.00000000    
   1.3179991168489539E-002 -0.36419015263579263        0.00000000    
   1.7206811772383500E-002 -0.35113870723970986        0.00000000    
   2.1000818491055045E-002 -0.34114927236907006        0.00000000    
   2.2097624801757535E-002 -0.33398494773360077        0.00000000    
   1.8325441766431482E-002 -0.32733229593138780        0.00000000    
   8.2566710326808391E-003 -0.31700541168751939        0.00000000    
  -8.3206751442489978E-003 -0.29767945506086463        0.00000000    
  -2.9186021822774244E-002 -0.26394020342436075        0.00000000    
  -5.0667238005616566E-002 -0.21286104015848362        0.00000000    
  -6.7361071763830188E-002 -0.14474471908410858        0.00000000    
  -7.5462922013927902E-002  -6.5140583456133494E-002   0.00000000    
  -7.3205905578266020E-002   2.0086678668516499E-002   0.00000000    
  -5.9718841977412750E-002  0.10247491495745588        0.00000000    
  -3.8190596492203299E-002  0.17460396772768416        0.00000000    
  -1.2588132850969571E-002  0.23162707687053852        0.00000000    
   1.1855191619416771E-002  0.27202687153743671        0.00000000    
   3.1358158477806590E-002  0.29765624897874665        0.00000000    
   4.3762857051067319E-002  0.31195037287141464        0.00000000    
   4.8900490008801596E-002  0.31832978866345785        0.00000000    
   4.7061756685627315E-002  0.31999064513826503        0.00000000    
   3.9923476075746145E-002  0.31941047531660666        0.00000000    
   2.8588106776419830E-002  0.31804423354724920        0.00000000    
   1.4930819756063359E-002  0.31712685884057817        0.00000000    
   0.0000000000000000       0.31660399293293262        0.00000000    
   0.0000000000000000       0.34178427089352803        0.00000000    
  -8.7453396370067368E-003  0.34201406913043136        0.00000000    
  -1.6194166167628768E-002  0.34241355531658191        0.00000000    
  -2.1097911549109380E-002  0.34251310810142654        0.00000000    
  -2.1987540600303019E-002  0.34106122296034863        0.00000000    
  -1.7970782741241555E-002  0.33638682749555343        0.00000000    
  -7.9521604470438410E-003  0.32607173071258638        0.00000000    
   7.3357008639401951E-003  0.30703792956911508        0.00000000    
   2.6767449270235152E-002  0.27733980857708618        0.00000000    
   4.7485340390845940E-002  0.23499053641540893        0.00000000    
   6.5854081568300735E-002  0.18170028466808660        0.00000000    
   7.9637325246634971E-002  0.12002794967095695        0.00000000    
   8.6509704703449639E-002   5.4586270146207531E-002   0.00000000    
   8.7135026301050772E-002  -9.8662354712695573E-003   0.00000000    
   8.2421586046480505E-002  -7.0235917571940337E-002   0.00000000    
   7.4060388825691909E-002 -0.12412196304934003        0.00000000    