 <VTKFile type="UnstructuredGrid" version="0.1" byte_order="BigEndian">
 <UnstructuredGrid>
 <Piece NumberOfPoints="        2601 " NumberOfCells="        2500 ">
 <PointData Scalars="scalars">
 <DataArray type="Float32" NumberOfComponents="3" Name="Velocity" Format="ascii">
   0.0000000000000000        0.0000000000000000        0.00000000    
  -3.0838532692991222E-002   0.0000000000000000        0.00000000    
  -6.1145582962101173E-002   0.0000000000000000        0.00000000    
  -9.0674459448588415E-002   0.0000000000000000        0.00000000    
 -0.11863136814161152        0.0000000000000000        0.00000000    
 -0.14507413199742447        0.0000000000000000        0.00000000    
 -0.16897231287759787        0.0000000000000000        0.00000000    
 -0.19070538116629213        0.0000000000000000        0.00000000    
 -0.20903539042970909        0.0000000000000000        0.00000000    
 -0.22467753609465707        0.0000000000000000        0.00000000    
 -0.23621872094863169        0.0000000000000000        0.00000000    
 -0.24471955274414453        0.0000000000000000        0.00000000    
 -0.24862633406488435        0.0000000000000000        0.00000000    
 -0.24934815696180285        0.0000000000000000        0.00000000    
 -0.24522561985039676        0.0000000000000000        0.00000000    
 -0.23800990112584047        0.0000000000000000        0.00000000    
 -0.22596868857239102        0.0000000000000000        0.00000000    
 -0.21117643620993384        0.0000000000000000        0.00000000    
 -0.19185604684338511        0.0000000000000000        0.00000000    
 -0.17037173563286584        0.0000000000000000        0.00000000    
 -0.14492301127669599        0.0000000000000000        0.00000000    
 -0.11811473742932789        0.0000000000000000        0.00000000    
  -8.8136709180664574E-002   0.0000000000000000        0.00000000    
  -5.7770753137809223E-002   0.0000000000000000        0.00000000    
  -2.5203385224801464E-002   0.0000000000000000        0.00000000    
   6.6817982238662746E-003   0.0000000000000000        0.00000000    
   3.9700462137503827E-002   0.0000000000000000        0.00000000    
   7.0949178633895979E-002   0.0000000000000000        0.00000000    
  0.10224703083344010        0.0000000000000000        0.00000000    
  0.13075370023675292        0.0000000000000000        0.00000000    
  0.15829177672814793        0.0000000000000000        0.00000000    
  0.18216218111240895        0.0000000000000000        0.00000000    
  0.20418668781838811        0.0000000000000000        0.00000000    
  0.22187578704216857        0.0000000000000000        0.00000000    
  0.23703931476555370        0.0000000000000000        0.00000000    
  0.24745239377562930        0.0000000000000000        0.00000000    
  0.25489392975909081        0.0000000000000000        0.00000000    
  0.25744389478340129        0.0000000000000000        0.00000000    
  0.25682380390599230        0.0000000000000000        0.00000000    
  0.25144412677568501        0.0000000000000000        0.00000000    
  0.24293673018331000        0.0000000000000000        0.00000000    
  0.23005540068443922        0.0000000000000000        0.00000000    
  0.21430677125206860        0.0000000000000000        0.00000000    
  0.19479050042210119        0.0000000000000000        0.00000000    
  0.17285172464153714        0.0000000000000000        0.00000000    
  0.14793096916293691        0.0000000000000000        0.00000000    
  0.12117721625764594        0.0000000000000000        0.00000000    
   9.2361565627736494E-002   0.0000000000000000        0.00000000    
   6.2405339250888689E-002   0.0000000000000000        0.00000000    
   3.1396144297437055E-002   0.0000000000000000        0.00000000    
   0.0000000000000000        0.0000000000000000        0.00000000    
   0.0000000000000000        3.0979832664681083E-002   0.00000000    
  -3.0924357041600351E-002   3.0783057071108257E-002   0.00000000    
  -6.1455945753641876E-002   3.0055581911212756E-002   0.00000000    
  -9.0927695276403986E-002   2.8945044099262587E-002   0.00000000    
 -0.11924209282282169        2.7326262141319786E-002   0.00000000    
 -0.14548167299819498        2.5356081891120132E-002   0.00000000    
 -0.16986256890298573        2.2922994894958040E-002   0.00000000    
 -0.19124423623837139        2.0191740730402502E-002   0.00000000    
 -0.21017220705313749        1.7066239348867949E-002   0.00000000    
 -0.22531367711751474        1.3717376381764030E-002   0.00000000    
 -0.23755582744851245        1.0065958804270275E-002   0.00000000    
 -0.24540732278860683        6.2863683326680906E-003   0.00000000    
 -0.25010393912519308        2.3170293256961072E-003   0.00000000    
 -0.25003099787483135       -1.6681476777856028E-003   0.00000000    
 -0.24677188175517825       -5.7135055522570125E-003   0.00000000    
 -0.23862299254404587       -9.6511023820575782E-003   0.00000000    
 -0.22750334764715680       -1.3509755067283767E-002   0.00000000    
 -0.21165145450513270       -1.7134390435805866E-002   0.00000000    
 -0.19329621113357504       -2.0541242301319623E-002   0.00000000    
 -0.17064339417359906       -2.3595885867769718E-002   0.00000000    
 -0.14619049667869388       -2.6305735982337129E-002   0.00000000    
 -0.11812822807609563       -2.8564806466212546E-002   0.00000000    
  -8.9165839703260294E-002  -3.0375610154327288E-002   0.00000000    
  -5.7488832081190211E-002  -3.1667353509174351E-002   0.00000000    
  -2.5947896535449086E-002  -3.2440949948621178E-002   0.00000000    
   7.2733989097668135E-003  -3.2665528943835738E-002   0.00000000    
   3.9262683549114545E-002  -3.2342419608197281E-002   0.00000000    
   7.1839062914444848E-002  -3.1482676252099641E-002   0.00000000    
  0.10211224373170433       -3.0088356763748800E-002   0.00000000    
  0.13190537103990307       -2.8211439946342932E-002   0.00000000    
  0.15843198993820681       -2.5853255442393724E-002   0.00000000    
  0.18351774740238075       -2.3102906404630467E-002   0.00000000    
  0.20455420353617779       -1.9958056434172807E-002   0.00000000    
  0.22336211427984640       -1.6538953531878661E-002   0.00000000    
  0.23757329636227664       -1.2835756272949583E-002   0.00000000    
  0.24898857033713584       -8.9925967106039145E-003   0.00000000    
  0.25552775740079609       -4.9881263355133730E-003   0.00000000    
  0.25894872240550415       -9.8280369214298548E-004   0.00000000    
  0.25749195061178304        3.0596663642978848E-003   0.00000000    
  0.25284247597649318        6.9694854026394505E-003   0.00000000    
  0.24358015673471214        1.0800230432564005E-002   0.00000000    
  0.23128266768404596        1.4378588118289471E-002   0.00000000    
  0.21487631063420226        1.7776398364996490E-002   0.00000000    
  0.19579492038597468        2.0821262714489364E-002   0.00000000    
  0.17330945847816229        2.3602974974984571E-002   0.00000000    
  0.14867405675842973        2.5953182224612403E-002   0.00000000    
  0.12149628825047450        2.7978339189758301E-002   0.00000000    
   9.2817299721234772E-002   2.9516299970627772E-002   0.00000000    
   6.2568898127217706E-002   3.0688328001389247E-002   0.00000000    
   3.1549660141186986E-002   3.1340104939301665E-002   0.00000000    
   0.0000000000000000        3.1605699500502661E-002   0.00000000    
   0.0000000000000000        6.2271683379955173E-002   0.00000000    
  -3.1321414625574716E-002   6.1736978024178796E-002   0.00000000    
  -6.2106472831385588E-002   6.0418307877248945E-002   0.00000000    
  -9.2104907008360534E-002   5.8052501834048420E-002   0.00000000    
 -0.12051629442992681        5.4944589375856417E-002   0.00000000    
 -0.14739585062078642        5.0856891023817914E-002   0.00000000    
 -0.17170434849974359        4.6111579547429053E-002   0.00000000    
 -0.19381957923313647        4.0500054147630110E-002   0.00000000    
 -0.21249246405272348        3.4358781567494001E-002   0.00000000    
 -0.22843780443941716        2.7511644615051005E-002   0.00000000    
 -0.24022919546745689        2.0305231931597327E-002   0.00000000    
 -0.24892891422004407        1.2598309298790718E-002   0.00000000    
 -0.25296834989940692        4.7411403771701645E-003   0.00000000    
 -0.25376143730609851       -3.3721125722299856E-003   0.00000000    
 -0.24963316328183824       -1.1396930800013414E-002   0.00000000    
 -0.24234394310010335       -1.9405786526529828E-002   0.00000000    
 -0.23014622516762312       -2.7072433750411119E-002   0.00000000    
 -0.21512911377481259       -3.4440716286927957E-002   0.00000000    
 -0.19550161808592667       -4.1217655508823087E-002   0.00000000    
 -0.17364850362598774       -4.7425404079639813E-002   0.00000000    
 -0.14775735219401334       -5.2820266695489955E-002   0.00000000    
 -0.12045918800985241       -5.7410708539310878E-002   0.00000000    
  -8.9933942218472937E-002  -6.1017342243560008E-002   0.00000000    
  -5.8994077753947285E-002  -6.3642493506050821E-002   0.00000000    
  -2.5817855233461050E-002  -6.5182968016073178E-002   0.00000000    
   6.6778587278822675E-003  -6.5640520282465933E-002   0.00000000    
   4.0316256450704253E-002  -6.4995110629834804E-002   0.00000000    
   7.2160254875495197E-002  -6.3250363020103451E-002   0.00000000    
  0.10403681206050104       -6.0470407996117817E-002   0.00000000    
  0.13307384160977559       -5.6659545570952340E-002   0.00000000    
  0.16110315240738901       -5.1961079511830655E-002   0.00000000    
  0.18539770595184799       -4.6375393343304150E-002   0.00000000    
  0.20779050543144736       -4.0114825107058112E-002   0.00000000    
  0.22576917540749764       -3.3168765578151772E-002   0.00000000    
  0.24115695337749093       -2.5804904277306466E-002   0.00000000    
  0.25171169786894043       -1.7993467171946907E-002   0.00000000    
  0.25922750258115979       -1.0042247648309872E-002   0.00000000    
  0.26177243957319418       -1.8945843754227395E-003   0.00000000    
  0.26108415970513915        6.1164987110322805E-003   0.00000000    
  0.25556579961525111        1.4080487781813701E-002   0.00000000    
  0.24686523348082878        2.1652113431203317E-002   0.00000000    
  0.23373240875247747        2.8957018899469597E-002   0.00000000    
  0.21768878000196737        3.5647953385706449E-002   0.00000000    
  0.19783260359913524        4.1887274345716756E-002   0.00000000    
  0.17552184149148786        4.7333187360675134E-002   0.00000000    
  0.15019724380765137        5.2182969243448112E-002   0.00000000    
  0.12301818553990566        5.6105378948000273E-002   0.00000000    
   9.3757175821161318E-002   5.9329258461409892E-002   0.00000000    
   6.3343451282123764E-002   6.1537495644954886E-002   0.00000000    
   3.1867153674315640E-002   6.2986472890698600E-002   0.00000000    
   0.0000000000000000        6.3376145365816927E-002   0.00000000    
   0.0000000000000000        9.3906221715089486E-002   0.00000000    
  -3.1887936024790481E-002   9.3311790340635845E-002   0.00000000    
  -6.3374917968368291E-002   9.1115535711265169E-002   0.00000000    
  -9.3782659211251951E-002   8.7761449421258159E-002   0.00000000    
 -0.12300762662210495        8.2871996622009989E-002   0.00000000    
 -0.15011716422509175        7.6918577573017372E-002   0.00000000    
 -0.17532311700845021        6.9564343661351474E-002   0.00000000    
 -0.19746511201425329        6.1304515774546035E-002   0.00000000    
 -0.21708640572354418        5.1848498470128901E-002   0.00000000    
 -0.23282966151567061        4.1710523893008965E-002   0.00000000    
 -0.24558294117754376        3.0651023344097989E-002   0.00000000    
 -0.25382640218514235        1.9195697648371684E-002   0.00000000    
 -0.25880181094288912        7.1585964651254240E-003   0.00000000    
 -0.25886352882389413       -4.9347633704787067E-003   0.00000000    
 -0.25560849075464342       -1.7217592094957539E-002   0.00000000    
 -0.24730176015556365       -2.9181076010288198E-002   0.00000000    
 -0.23588586144942902       -4.0910760905045682E-002   0.00000000    
 -0.21956974977698676       -5.1935612195345121E-002   0.00000000    
 -0.20061743307643240       -6.2302571989705763E-002   0.00000000    
 -0.17720862335048537       -7.1602411782368980E-002   0.00000000    
 -0.15188780226849471       -7.9855231506649721E-002   0.00000000    
 -0.12282387282447986       -8.6737837353997843E-002   0.00000000    
  -9.2783518413299973E-002  -9.2255813631402450E-002   0.00000000    
  -5.9934317765084781E-002  -9.6193087228584079E-002   0.00000000    
  -2.7191760418500559E-002  -9.8551154160606766E-002   0.00000000    
   7.2760331673176115E-003  -9.9235841682713238E-002   0.00000000    
   4.0488778570894952E-002  -9.8250932355988446E-002   0.00000000    
   7.4280620791930013E-002  -9.5630381937400574E-002   0.00000000    
  0.10569493355663086       -9.1381259028513545E-002   0.00000000    
  0.13657167975464710       -8.5662470283498660E-002   0.00000000    
  0.16406399619788403       -7.8479782040085114E-002   0.00000000    
  0.19001788083104795       -7.0105128990369567E-002   0.00000000    
  0.21177371186135657       -6.0533719969795938E-002   0.00000000    
  0.23117700409710329       -5.0131832924972627E-002   0.00000000    
  0.24581943160506783       -3.8872042408265903E-002   0.00000000    
  0.25753074220200184       -2.7192384127214066E-002   0.00000000    
  0.26420186655624867       -1.5030259759242636E-002   0.00000000    
  0.26762246363088449       -2.8721063290995824E-003   0.00000000    
  0.26601423069774638        9.3905334662707403E-003   0.00000000    
  0.26109483425467439        2.1244209561487180E-002   0.00000000    
  0.25143343961964415        3.2850352421464724E-002   0.00000000    
  0.23863894723260945        4.3686097026427048E-002   0.00000000    
  0.22163281205874510        5.3968639183728871E-002   0.00000000    
  0.20187674362378941        6.3178833387187452E-002   0.00000000    
  0.17864075932095741        7.1588374730419652E-002   0.00000000    
  0.15320224377585862        7.8690895104210748E-002   0.00000000    
  0.12517045227172230        8.4808302859991136E-002   0.00000000    
   9.5604705512054772E-002   8.9453091029265228E-002   0.00000000    
   6.4440637255976665E-002   9.2991455873225895E-002   0.00000000    
   3.2490194002970645E-002   9.4959253524535242E-002   0.00000000    
   0.0000000000000000        9.5760712410418433E-002   0.00000000    
   0.0000000000000000       0.12647364181613271        0.00000000    
  -3.2762495514591219E-002  0.12539480178011533        0.00000000    
  -6.4974694977018230E-002  0.12273170567913025        0.00000000    
  -9.6376161280358363E-002  0.11795448700055972        0.00000000    
 -0.12614724524250401       0.11167501041724399        0.00000000    
 -0.15433564724920121       0.10341350338821446        0.00000000    
 -0.17987626181994862        9.3815985201990665E-002   0.00000000    
 -0.20314180112820934        8.2460408548527167E-002   0.00000000    
 -0.22284997768866358        7.0022075967810432E-002   0.00000000    
 -0.23971398239487704        5.6144206894040406E-002   0.00000000    
 -0.25226729786713131        4.1523935479290154E-002   0.00000000    
 -0.26157644710108585        2.5875395754932327E-002   0.00000000    
 -0.26602751707441635        9.9053770919052906E-003   0.00000000    
 -0.26704803051106563       -6.5993126795650401E-003   0.00000000    
 -0.26291531655685518       -2.2940794806916361E-002   0.00000000    
 -0.25541663512355606       -3.9263285330813531E-002   0.00000000    
 -0.24275782260139192       -5.4903262810268173E-002   0.00000000    
 -0.22707142407212780       -6.9945620492059532E-002   0.00000000    
 -0.20652402109087081       -8.3792283372137552E-002   0.00000000    
 -0.18356209488002356       -9.6483436337065104E-002   0.00000000    
 -0.15633701012706477      -0.10752011278414697        0.00000000    
 -0.12755898846611868      -0.11691490718187365        0.00000000    
  -9.5378295511469272E-002 -0.12429979116653531        0.00000000    
  -6.2700574487863744E-002 -0.12967603136573494        0.00000000    
  -2.7679542375744808E-002 -0.13283179947930215        0.00000000    
   6.6665360497512195E-003 -0.13376906837581731        0.00000000    
   4.2183068067067571E-002 -0.13244698308091371        0.00000000    
   7.5830407152537374E-002 -0.12887351251945825        0.00000000    
  0.10945881151174133      -0.12318084556751850        0.00000000    
  0.14009957598544734      -0.11538039441665815        0.00000000    
  0.16961205768768628      -0.10576665604961046        0.00000000    
  0.19518452564090963       -9.4344607567608929E-002   0.00000000    
  0.21868389148528719       -8.1549438264529914E-002   0.00000000    
  0.23752896307113597       -6.7364478452120929E-002   0.00000000    
  0.25358375268680050       -5.2336614002137107E-002   0.00000000    
  0.26455465396290101       -3.6410024406549973E-002   0.00000000    
  0.27228214765356301       -2.0211237522331622E-002   0.00000000    
  0.27479930673134262       -3.6288847184635987E-003   0.00000000    
  0.27389308436411441        1.2661767158340560E-002   0.00000000    
  0.26794545250636193        2.8840004170356894E-002   0.00000000    
  0.25865306297638990        4.4208341979776078E-002   0.00000000    
  0.24475507811357455        5.9020584718247900E-002   0.00000000    
  0.22781787360582315        7.2577491175529016E-002   0.00000000    
  0.20693596340312700        8.5207960033499702E-002   0.00000000    
  0.18350586786434064        9.6225327927547594E-002   0.00000000    
  0.15696912897680132       0.10602919634036873        0.00000000    
  0.12851603308081172       0.11395488902559012        0.00000000    
   9.7923101486470807E-002  0.12046518321851626        0.00000000    
   6.6142791018747774E-002  0.12492374240921135        0.00000000    
   3.3272369217716077E-002  0.12784783204362585        0.00000000    
   0.0000000000000000       0.12863469711325157        0.00000000    
   0.0000000000000000       0.15971690806154148        0.00000000    
  -3.3799129614245964E-002  0.15871316066479874        0.00000000    
  -6.7182235396307591E-002  0.15500865203993391        0.00000000    
  -9.9450007157651121E-002  0.14934677870595045        0.00000000    
 -0.13048778866173336       0.14109158417882511        0.00000000    
 -0.15933375744473632       0.13103130041809657        0.00000000    
 -0.18619148239709943       0.11859652769571334        0.00000000    
 -0.20986166727763636       0.10461559024561135        0.00000000    
 -0.23088255290665260        8.8595956460449057E-002   0.00000000    
 -0.24784776765763891        7.1399545860847582E-002   0.00000000    
 -0.26164590553115158        5.2620049858271269E-002   0.00000000    
 -0.27069934629758796        3.3141871378812089E-002   0.00000000    
 -0.27626004741973614        1.2650672563309293E-002   0.00000000    
 -0.27661900677975171       -7.9651353516269948E-003   0.00000000    
 -0.27339833573004751       -2.8928357139161798E-002   0.00000000    
 -0.26479861204927380       -4.9374128109776635E-002   0.00000000    
 -0.25280787810297023       -6.9441966500340846E-002   0.00000000    
 -0.23557425225651626       -8.8326941174678583E-002   0.00000000    
 -0.21543144000793568      -0.10610117792007295        0.00000000    
 -0.19050578216556133      -0.12206212583919132        0.00000000    
 -0.16343651703038056      -0.13623577317099511        0.00000000    
 -0.13234841719766410      -0.14806536828542705        0.00000000    
 -0.10012509089319563      -0.15755334932301882        0.00000000    
  -6.4898460574161446E-002 -0.16432682454856401        0.00000000    
  -2.9716592536073550E-002 -0.16838390644764684        0.00000000    
   7.2826332299962757E-003 -0.16956226559568291        0.00000000    
   4.2979786192580853E-002 -0.16786747084192563        0.00000000    
   7.9238327903544223E-002 -0.16335890555153368        0.00000000    
  0.11296594145741148      -0.15605147044946238        0.00000000    
  0.14603573580967755      -0.14622032835738863        0.00000000    
  0.17547783699160541      -0.13388130499392917        0.00000000    
  0.20317903475344615      -0.11950362433514038        0.00000000    
  0.22637630583428556      -0.10308705842299676        0.00000000    
  0.24696549810222848       -8.5261122144349860E-002   0.00000000    
  0.26245816582458431       -6.5987427648576458E-002   0.00000000    
  0.27474337260686249       -4.6015318815542210E-002   0.00000000    
  0.28165539718586463       -2.5245461383489414E-002   0.00000000    
  0.28504929477434399       -4.5057175207931918E-003   0.00000000    
  0.28311083140222271        1.6383285699720567E-002   0.00000000    
  0.27762466933116836        3.6552279560357469E-002   0.00000000    
  0.26714024180333806        5.6272883647485998E-002   0.00000000    
  0.25333015598503267        7.4664113734015880E-002   0.00000000    
  0.23510741482858974        9.2093907824087592E-002   0.00000000    
  0.21399001411516452       0.10769085430318845        0.00000000    
  0.18924667006432075       0.12191587324785794        0.00000000    
  0.16220104997853571       0.13392100999526668        0.00000000    
  0.13246565036253349       0.14425157088329901        0.00000000    
  0.10113529117373513       0.15209179214558108        0.00000000    
   6.8152522522009762E-002  0.15806021260246220        0.00000000    
   3.4354797520609631E-002  0.16137950865418643        0.00000000    
   0.0000000000000000       0.16273018724213978        0.00000000    
   0.0000000000000000       0.19450262303824734        0.00000000    
  -3.5135636877778050E-002  0.19286221218122884        0.00000000    
  -6.9700125521911779E-002  0.18880719495112600        0.00000000    
 -0.10341803797029007       0.18153392000527829        0.00000000    
 -0.13543999800585621       0.17196418442088485        0.00000000    
 -0.16580228314637130       0.15936695410004273        0.00000000    
 -0.19339841055887219       0.14471472638067703        0.00000000    
 -0.21859253735530898       0.12736170323780682        0.00000000    
 -0.24004776319942800       0.10832595494373201        0.00000000    
 -0.25847315996919001        8.7060158898207063E-002   0.00000000    
 -0.27233477660113636        6.4619191328997960E-002   0.00000000    
 -0.28270357630534504        4.0564970378348782E-002   0.00000000    
 -0.28788823989716578        1.5972938280634945E-002   0.00000000    
 -0.28933562734954554       -9.4810542571948427E-003   0.00000000    
 -0.28524077471030213       -3.4727961919404360E-002   0.00000000    
 -0.27743257474733057       -5.9982446974147584E-002   0.00000000    
 -0.26403603216566884       -8.4220924160582022E-002   0.00000000    
 -0.24725419939618165      -0.10756344213144738        0.00000000    
 -0.22518030516298079      -0.12908138344154946        0.00000000    
 -0.20036381875485731      -0.14882406456944661        0.00000000    
 -0.17089420447328454      -0.16601271385381122        0.00000000    
 -0.13961612143351593      -0.18065461047645556        0.00000000    
 -0.10463014768081666      -0.19217340718537224        0.00000000    
  -6.9001631482352957E-002 -0.20056191320514988        0.00000000    
  -3.0844190898259505E-002 -0.20548812640939784        0.00000000    
   6.6494006253906748E-003 -0.20695086292512888        0.00000000    
   4.5360258966679001E-002 -0.20488688481249626        0.00000000    
   8.2072263460100631E-002 -0.19931003778681364        0.00000000    
  0.11867333533538771      -0.19042902363951614        0.00000000    
  0.15202921146390314      -0.17826844564952377        0.00000000    
  0.18404474777874330      -0.16329082519482324        0.00000000    
  0.21176429896196930      -0.14551485308061640        0.00000000    
  0.23711204387651560      -0.12562084566929296        0.00000000    
  0.25739142977346707      -0.10359591306410587        0.00000000    
  0.27453642017137986       -8.0290294845641347E-002   0.00000000    
  0.28616888156189096       -5.5630119792241299E-002   0.00000000    
  0.29420949925894746       -3.0583302679601833E-002   0.00000000    
  0.29663554519180169       -4.9878197467730680E-003   0.00000000    
  0.29531927046435219        2.0120126028287430E-002   0.00000000    
  0.28861032135374054        4.5010550412941379E-002   0.00000000    
  0.27828925886192629        6.8620102817306752E-002   0.00000000    
  0.26307981223305382        9.1336427011124127E-002   0.00000000    
  0.24462475407881928       0.11209939386014105        0.00000000    
  0.22201392720914323       0.13141359585027099        0.00000000    
  0.19670832802499161       0.14824207493796357        0.00000000    
  0.16815117825025888       0.16319757816601094        0.00000000    
  0.13758328593457700       0.17527829464612887        0.00000000    
  0.10478707129093301       0.18519164221583287        0.00000000    
   7.0751832771166603E-002  0.19197836970528212        0.00000000    
   3.5585037906303664E-002  0.19642587141858056        0.00000000    
   0.0000000000000000       0.19762365990592481        0.00000000    
   0.0000000000000000       0.23027487959962853        0.00000000    
  -3.6619066601906052E-002  0.22884465910081617        0.00000000    
  -7.2802954734862951E-002  0.22357312480953984        0.00000000    
 -0.10782455964668405       0.21550750750872125        0.00000000    
 -0.14155500684173841       0.20374300414860161        0.00000000    
 -0.17299200995092087       0.18938742262404920        0.00000000    
 -0.20232761011443232       0.17162598543285748        0.00000000    
 -0.22830620794837356       0.15162316881838969        0.00000000    
 -0.25145741504643493       0.12867092230515045        0.00000000    
 -0.27030156111298353       0.10398473437583125        0.00000000    
 -0.28572487577258776        7.6979547142406915E-002   0.00000000    
 -0.29606120164788136        4.8909740147502517E-002   0.00000000    
 -0.30257303515909589        1.9324665613681201E-002   0.00000000    
 -0.30345256646983038       -1.0505862823761449E-002   0.00000000    
 -0.30035443025324821       -4.0896142209789765E-002   0.00000000    
 -0.29137764694892410       -7.0599249947416828E-002   0.00000000    
 -0.27857434206210535       -9.9803968657178110E-002   0.00000000    
 -0.25999670067309183      -0.12733987178947143        0.00000000    
 -0.23808136243120995      -0.15329418626021332        0.00000000    
 -0.21087125269532286      -0.17663785789071496        0.00000000    
 -0.18114965753176260      -0.19739012997945568        0.00000000    
 -0.14697377657353591      -0.21473115834457807        0.00000000    
 -0.11140800044567824      -0.22864860919971133        0.00000000    
  -7.2531313877735648E-002 -0.23859191395289070        0.00000000    
  -3.3598517692543683E-002 -0.24454836243291808        0.00000000    
   7.2960604428662411E-003 -0.24627879655629972        0.00000000    
   4.6815519763679689E-002 -0.24378926884541716        0.00000000    
   8.6865197916973974E-002 -0.23716933639625387        0.00000000    
  0.12414131198632160      -0.22644691097665837        0.00000000    
  0.16056531082608580      -0.21203043327637772        0.00000000    
  0.19297712078590704      -0.19395618384448071        0.00000000    
  0.22332489265006589      -0.17291681747418483        0.00000000    
  0.24868793149157872      -0.14892966503348348        0.00000000    
  0.27103973100855616      -0.12291827910986032        0.00000000    
  0.28777232228301514       -9.4845510473761163E-002   0.00000000    
  0.30086765691460515       -6.5802700182458318E-002   0.00000000    
  0.30807823479587565       -3.5661917868974304E-002   0.00000000    
  0.31136204841699444       -5.6190641078682404E-003   0.00000000    
  0.30885546298450195        2.4574230548337250E-002   0.00000000    
  0.30244821830043339        5.3672639690785770E-002   0.00000000    
  0.29066455735457186        8.2062736976455719E-002   0.00000000    
  0.27527588808056463       0.10849190875775112        0.00000000    
  0.25518575492528095       0.13348910342267828        0.00000000    
  0.23199785687553212       0.15582261120971613        0.00000000    
  0.20498040022272429       0.17615611541547052        0.00000000    
  0.17552573304731833       0.19329535464084624        0.00000000    
  0.14325079590458667       0.20802334763005939        0.00000000    
  0.10930130417381392       0.21919229560815842        0.00000000    
   7.3628187941608789E-002  0.22768607106564870        0.00000000    
   3.7103853397944059E-002  0.23240929946820932        0.00000000    
   0.0000000000000000       0.23432912316163740        0.00000000    
   0.0000000000000000       0.26817427443106745        0.00000000    
  -3.8385570116156890E-002  0.26594990098852245        0.00000000    
  -7.6176150907861742E-002  0.26044235184801157        0.00000000    
 -0.11307975284036383       0.25056348731522182        0.00000000    
 -0.14821065877795436       0.23754837747669300        0.00000000    
 -0.18159174703576719       0.22040014066317451        0.00000000    
 -0.21206273961578545       0.20041986013963242        0.00000000    
 -0.23997582132117334       0.17672097365074729        0.00000000    
 -0.26391958886714884       0.15066809211961174        0.00000000    
 -0.28459433625568459       0.12150645801585423        0.00000000    
 -0.30037071786158620        9.0657519771065634E-002   0.00000000    
 -0.31232007691235625        5.7517452443924540E-002   0.00000000    
 -0.31863864664972491        2.3547356569388330E-002   0.00000000    
 -0.32079277400612372       -1.1694895113674345E-002   0.00000000    
 -0.31685584498851532       -4.6742175150181912E-002   0.00000000    
 -0.30870767981460256       -8.1878165486922616E-002   0.00000000    