 <VTKFile type="UnstructuredGrid" version="0.1" byte_order="BigEndian">
 <UnstructuredGrid>
 <Piece NumberOfPoints="        2601 " NumberOfCells="        2500 ">
 <PointData Scalars="scalars">
 <DataArray type="Float32" NumberOfComponents="3" Name="Velocity" Format="ascii">
   0.0000000000000000        0.0000000000000000        0.00000000    
 -0.16057573905832206        0.0000000000000000        0.00000000    
 -0.32120698709705442        0.0000000000000000        0.00000000    
 -0.48228885512208436        0.0000000000000000        0.00000000    
 -0.64342874749684265        0.0000000000000000        0.00000000    
 -0.80525631986276902        0.0000000000000000        0.00000000    
 -0.96677867213690194        0.0000000000000000        0.00000000    
  -1.1287113520838854        0.0000000000000000        0.00000000    
  -1.2892215167818304        0.0000000000000000        0.00000000    
  -1.4488518705804265        0.0000000000000000        0.00000000    
  -1.6045528842102124        0.0000000000000000        0.00000000    
  -1.7562319532219948        0.0000000000000000        0.00000000    
  -1.8990725978159215        0.0000000000000000        0.00000000    
  -2.0315796022480690        0.0000000000000000        0.00000000    
  -2.1464831083670894        0.0000000000000000        0.00000000    
  -2.2397948647151886        0.0000000000000000        0.00000000    
  -2.3012548693881891        0.0000000000000000        0.00000000    
  -2.3228981021454209        0.0000000000000000        0.00000000    
  -2.2912222867668546        0.0000000000000000        0.00000000    
  -2.1928755491184675        0.0000000000000000        0.00000000    
  -2.0109692244254789        0.0000000000000000        0.00000000    
  -1.7297510744041411        0.0000000000000000        0.00000000    
  -1.3283474266287505        0.0000000000000000        0.00000000    
 -0.89466245993224081        0.0000000000000000        0.00000000    
 -0.44761301504623430        0.0000000000000000        0.00000000    
  -2.8113122379976874E-002   0.0000000000000000        0.00000000    
  0.38996613772201727        0.0000000000000000        0.00000000    
  0.85929627454997903        0.0000000000000000        0.00000000    
   1.3012266287946601        0.0000000000000000        0.00000000    
   1.6992772232215985        0.0000000000000000        0.00000000    
   1.9763884551329693        0.0000000000000000        0.00000000    
   2.1483153302277200        0.0000000000000000        0.00000000    
   2.2463692168518228        0.0000000000000000        0.00000000    
   2.2769857843380619        0.0000000000000000        0.00000000    
   2.2586769680062941        0.0000000000000000        0.00000000    
   2.2007028062134615        0.0000000000000000        0.00000000    
   2.1122980001733023        0.0000000000000000        0.00000000    
   2.0018828508339088        0.0000000000000000        0.00000000    
   1.8741825197932072        0.0000000000000000        0.00000000    
   1.7353929530516965        0.0000000000000000        0.00000000    
   1.5876049576227138        0.0000000000000000        0.00000000    
   1.4350341690123234        0.0000000000000000        0.00000000    
   1.2782696738187331        0.0000000000000000        0.00000000    
   1.1199957084709260        0.0000000000000000        0.00000000    
  0.96007126150311273        0.0000000000000000        0.00000000    
  0.80009457022035035        0.0000000000000000        0.00000000    
  0.63965512013714121        0.0000000000000000        0.00000000    
  0.47960512445779896        0.0000000000000000        0.00000000    
  0.31952415720169847        0.0000000000000000        0.00000000    
  0.15974856933395318        0.0000000000000000        0.00000000    
   0.0000000000000000        0.0000000000000000        0.00000000    
   0.0000000000000000       0.15988567615410693        0.00000000    
 -0.15931548137715854       0.16000554428148500        0.00000000    
 -0.31886088916186839       0.16017111154196770        0.00000000    
 -0.47847793300026076       0.16052780032166880        0.00000000    
 -0.63868698402036761       0.16082114307310136        0.00000000    
 -0.79882024343015345       0.16113968870293624        0.00000000    
 -0.95957460118856541       0.16113702132939653        0.00000000    
  -1.1195891466759789       0.16081020410545208        0.00000000    
  -1.2795554013371326       0.15966621525329686        0.00000000    
  -1.4371285245345917       0.15753726174336394        0.00000000    
  -1.5926694522676557       0.15370467961896703        0.00000000    
  -1.7424059105597167       0.14771084768567247        0.00000000    
  -1.8858013995261742       0.13852528587397814        0.00000000    
  -2.0170528475564717       0.12523316658951039        0.00000000    
  -2.1338430627509575       0.10646055472297981        0.00000000    
  -2.2276979177232739        8.0706056598804102E-002   0.00000000    
  -2.2934150978675691        4.6471128217101962E-002   0.00000000    
  -2.3197081791361778        1.4651858105323612E-003   0.00000000    
  -2.2971087414232199       -5.5740438903948246E-002   0.00000000    
  -2.2120267262779953      -0.12768831388731963        0.00000000    
  -2.0509395932188030      -0.21530514386745117        0.00000000    
  -1.8000880028151578      -0.31676459655446920        0.00000000    
  -1.4539338328550426      -0.43079322118475527        0.00000000    
 -0.99172159854233211      -0.46510397982038137        0.00000000    
 -0.51871945041028755      -0.45494761320331867        0.00000000    
  -3.8019368750145076E-002 -0.44525236111714706        0.00000000    
  0.46616235238775455      -0.47700862012847489        0.00000000    
  0.95366076327189531      -0.47981992757764907        0.00000000    
   1.4262691167221910      -0.43471878012145493        0.00000000    
   1.7717146005253415      -0.30877729810459137        0.00000000    
   2.0107050700248563      -0.20732440330945079        0.00000000    
   2.1704769316741186      -0.12437433343170487        0.00000000    
   2.2512169027691229       -5.4419524289696625E-002   0.00000000    
   2.2756600854883957       -6.4022591372829053E-004   0.00000000    
   2.2515201043640025        4.3089023368223213E-002   0.00000000    
   2.1900979873351467        7.6307255455024786E-002   0.00000000    
   2.1004318975602514       0.10176364035881580        0.00000000    
   1.9885668412959985       0.12051656524601007        0.00000000    
   1.8615890481680726       0.13416155892173656        0.00000000    
   1.7224592906866791       0.14375776530206616        0.00000000    
   1.5762165230364358       0.15027299777652933        0.00000000    
   1.4239328584027529       0.15458145546823071        0.00000000    
   1.2689290364213941       0.15718686170627871        0.00000000    
   1.1112883815270920       0.15872775853634727        0.00000000    
  0.95306552525365718       0.15941954470461414        0.00000000    
  0.79391901820657307       0.15970365362561262        0.00000000    
  0.63502360198785945       0.15963121267615091        0.00000000    
  0.47593676965802456       0.15950561533328983        0.00000000    
  0.31722671005157171       0.15928541152921538        0.00000000    
  0.15853361301742167       0.15918327337283622        0.00000000    
   0.0000000000000000       0.15909890897859366        0.00000000    
   0.0000000000000000       0.31744908506251490        0.00000000    
 -0.15574272063925279       0.31750033738949945        0.00000000    
 -0.31151296652110727       0.31799197210083036        0.00000000    
 -0.46767410899850187       0.31848512607829810        0.00000000    
 -0.62382317017814726       0.31922192951685313        0.00000000    
 -0.78057193535681568       0.31962092684701354        0.00000000    
 -0.93695339119080678       0.31979159677870234        0.00000000    
  -1.0937113537559282       0.31892813670767872        0.00000000    
  -1.2491074016160815       0.31691058517376902        0.00000000    
  -1.4038212732818736       0.31257988668468828        0.00000000    
  -1.5550212277768782       0.30540293690760822        0.00000000    
  -1.7029729962660451       0.29370081717623830        0.00000000    
  -1.8432852620173221       0.27624307110368551        0.00000000    
  -1.9752195670380805       0.25070113440810515        0.00000000    
  -2.0922699266964044       0.21483316176057646        0.00000000    
  -2.1918486966428228       0.16576707447622197        0.00000000    
  -2.2649130045484136       0.10019159839406701        0.00000000    
  -2.3065483301612200        1.5673122509976982E-002   0.00000000    
  -2.3065929895298387       -9.2503153941765864E-002   0.00000000    
  -2.2570509838115029      -0.22554961971976556        0.00000000    
  -2.1503131380191491      -0.38526881687865960        0.00000000    
  -1.9807173851155022      -0.56724826685962104        0.00000000    
  -1.7558547818382089      -0.75132632410633282        0.00000000    
  -1.4495312011838237      -0.91310669187886107        0.00000000    
  -1.0230935838680373      -0.90638466657765104        0.00000000    
  -3.8708490239415548E-002  -1.4589004830512207        0.00000000    
  0.95029084305120493      -0.95654155260283080        0.00000000    
   1.4126218661868661      -0.95011642913827765        0.00000000    
   1.7260351589358685      -0.75044392474644273        0.00000000    
   1.9409607883407194      -0.55342326669896380        0.00000000    
   2.1141027938110013      -0.37481090967508224        0.00000000    
   2.2141631553964944      -0.21672005030900804        0.00000000    
   2.2642399350834501       -9.2890558187262107E-002   0.00000000    
   2.2656024867335964        1.2025073608470145E-002   0.00000000    
   2.2269139046427413        9.3252287066493966E-002   0.00000000    
   2.1572693049419014       0.15721070848208540        0.00000000    
   2.0623368969835805       0.20545868506886311        0.00000000    
   1.9494239354925864       0.24159953828798639        0.00000000    
   1.8217926385682131       0.26768767593497877        0.00000000    
   1.6850603945377727       0.28609364979828061        0.00000000    
   1.5405148321378470       0.29872544333267254        0.00000000    
   1.3920247194869737       0.30690278719491154        0.00000000    
   1.2397951809754104       0.31209889047414369        0.00000000    
   1.0863135266686357       0.31493803896833139        0.00000000    
  0.93128569062726907       0.31645995658860171        0.00000000    
  0.77621575864860448       0.31687968076655937        0.00000000    
  0.62065383949780484       0.31691252090551036        0.00000000    
  0.46542103140989322       0.31654394752121567        0.00000000    
  0.31010639439082066       0.31627177596727718        0.00000000    
  0.15505055307866547       0.31594584728093306        0.00000000    
   0.0000000000000000       0.31592050116673936        0.00000000    
   0.0000000000000000       0.47006279856783090        0.00000000    
 -0.14976015250726632       0.47038949703091265        0.00000000    
 -0.29968503888455383       0.47079794471827163        0.00000000    
 -0.44957201610878395       0.47172727316319674        0.00000000    
 -0.59988169784869627       0.47243852535070457        0.00000000    
 -0.74995023851910236       0.47322163686349678        0.00000000    
 -0.90046231627402473       0.47308442034974690        0.00000000    
  -1.0501533271068835       0.47208428653649631        0.00000000    
  -1.1998321364296274       0.46882929252578742        0.00000000    
  -1.3474197895522437       0.46296270412370594        0.00000000    
  -1.4936805577221444       0.45248084213060696        0.00000000    
  -1.6354014870363691       0.43629560976019122        0.00000000    
  -1.7730022805904613       0.41156133782115889        0.00000000    
  -1.9017065664636532       0.37602145858934310        0.00000000    
  -2.0210946703348900       0.32595130110357878        0.00000000    
  -2.1244652408223499       0.25759827557345211        0.00000000    
  -2.2099512967152637       0.16691076108818734        0.00000000    
  -2.2688011088452456        4.9439097567113829E-002   0.00000000    
  -2.2992586157688542       -9.5766962716258036E-002   0.00000000    
  -2.2960746198655193      -0.27501181255569057        0.00000000    
  -2.2555207287136194      -0.48309836099973047        0.00000000    
  -2.1842525318446215      -0.71028267249629118        0.00000000    
  -2.0976372505052736      -0.91976980310352208        0.00000000    
  -2.0340134509350118       -1.1146105930856554        0.00000000    
  -2.3745554971494425      -0.79077633649747114        0.00000000    
  -2.2907127773560469E-002  -4.9105422185386525        0.00000000    
   2.2741675486846682      -0.79097391841910503        0.00000000    
   1.9226608216471788       -1.2265083593942259        0.00000000    
   2.0576945852854025      -0.92249905090003292        0.00000000    
   2.1604829752378403      -0.69908215988391909        0.00000000    
   2.2192204992072271      -0.46103154594561430        0.00000000    
   2.2588121869612880      -0.27015146336451001        0.00000000    
   2.2647448945810353       -9.5468632449905722E-002   0.00000000    
   2.2340803353455745        4.3905155466323759E-002   0.00000000    
   2.1773292585630672       0.15681186407361908        0.00000000    
   2.0959066649587479       0.24471832478746461        0.00000000    
   1.9962183244381138       0.31257181723623700        0.00000000    
   1.8808072958785567       0.36281039617665456        0.00000000    
   1.7554577257459398       0.39945768509869922        0.00000000    
   1.6210943926250356       0.42541921779001551        0.00000000    
   1.4819613181665550       0.44307851219594740        0.00000000    
   1.3381074332431975       0.45489371590892758        0.00000000    
   1.1923672736793014       0.46207765983312282        0.00000000    
   1.0443829079748235       0.46642528962283691        0.00000000    
  0.89595370897986026       0.46842974096870754        0.00000000    
  0.74659603021901189       0.46933750712752065        0.00000000    
  0.59738031111847034       0.46923233279479415        0.00000000    
  0.44785812761885890       0.46897912722043311        0.00000000    
  0.29858204804856436       0.46842731285687650        0.00000000    
  0.14923767163124130       0.46819052812126655        0.00000000    
   0.0000000000000000       0.46796404503626876        0.00000000    
   0.0000000000000000       0.61592453137962599        0.00000000    
 -0.14167925701363002       0.61596717373992904        0.00000000    
 -0.28329561970863659       0.61676151708215077        0.00000000    
 -0.42510696266261799       0.61746202097674863        0.00000000    
 -0.56666615492932693       0.61857265154509278        0.00000000    
 -0.70850401162625687       0.61899390803491428        0.00000000    
 -0.84969809772343308       0.61901831303254196        0.00000000    
 -0.99100913411176161       0.61715244107250500        0.00000000    
  -1.1309059130672812       0.61333672627108515        0.00000000    
  -1.2703285883328592       0.60546559876319850        0.00000000    
  -1.4069409315212444       0.59285105885357847        0.00000000    
  -1.5417834248961344       0.57248881572165755        0.00000000    
  -1.6714286670835066       0.54261416760677916        0.00000000    
  -1.7968611815881581       0.49910542917524570        0.00000000    
  -1.9132059466646119       0.43860019947287465        0.00000000    
  -2.0211041111775740       0.35621811219608740        0.00000000    
  -2.1142904159702436       0.24696328516115912        0.00000000    
  -2.1925656130646209       0.10651158270710745        0.00000000    
  -2.2473163331161068       -6.7631220867768072E-002   0.00000000    
  -2.2842033950488774      -0.26944448838997537        0.00000000    
  -2.3050959350334170      -0.50832703631503495        0.00000000    
  -2.3090420879345981      -0.75237604116877665        0.00000000    
  -2.2958747905257133      -0.97745901315599637        0.00000000    
  -2.4479176723744183      -0.96850230078161004        0.00000000    
  -15.822138563683326        12.777878326792958        0.00000000    
  -4.6099305295483548       -32.043056284151469        0.00000000    
   11.380953208657921        8.0535847474243969        0.00000000    
   2.6303945781750566      -0.96900167719755670        0.00000000    
   2.3080339671945906      -0.99267888568263696        0.00000000    
   2.2951148638894097      -0.71877161177401627        0.00000000    
   2.2866666587863524      -0.49163141290033585        0.00000000    
   2.2682672417318708      -0.26074386712766723        0.00000000    
   2.2214577483897777       -6.3999442948722410E-002   0.00000000    
   2.1653804630691855        9.9177810507847297E-002   0.00000000    
   2.0905767794847243       0.23309396941065652        0.00000000    
   2.0003080580147521       0.34012753451484945        0.00000000    
   1.8956557941698871       0.42150321188301132        0.00000000    
   1.7821319455673603       0.48281387868462011        0.00000000    
   1.6593953301126241       0.52754038818457527        0.00000000    
   1.5319056635230046       0.55918951440920617        0.00000000    
   1.3990879970678565       0.58125895649523374        0.00000000    
   1.2640063406580828       0.59564881293875693        0.00000000    
   1.1260235250599959       0.60504553796885230        0.00000000    
  0.98716364639264365       0.61030165585605733        0.00000000    
  0.84683177839986401       0.61331444172578509        0.00000000    
  0.70631715809732409       0.61432510543188001        0.00000000    
  0.56512450572020523       0.61465310596979572        0.00000000    
  0.42401392628954537       0.61419111697454964        0.00000000    
  0.28263340978218054       0.61387191918136852        0.00000000    
  0.14135088604840593       0.61337282194743614        0.00000000    
   0.0000000000000000       0.61337030888999811        0.00000000    
   0.0000000000000000       0.75233144822400511        0.00000000    
 -0.13152105820002760       0.75276057210950853        0.00000000    
 -0.26306539350075830       0.75312881670774556        0.00000000    
 -0.39432815770317808       0.75416882850873312        0.00000000    
 -0.52562211228146949       0.75471899085664407        0.00000000    
 -0.65625539321303916       0.75531870635398390        0.00000000    
 -0.78681130426758761       0.75444351186273340        0.00000000    
 -0.91612812505307384       0.75235509941932111        0.00000000    
  -1.0450653071644651       0.74696802898755466        0.00000000    
  -1.1718775045633185       0.73806916871563011        0.00000000    
  -1.2977415198074107       0.72272384732858275        0.00000000    
  -1.4201654035665909       0.69988240438678073        0.00000000    
  -1.5407243137629631       0.66542473131856572        0.00000000    
  -1.6559142957870887       0.61691736200034131        0.00000000    
  -1.7677699507543130       0.54898868668227563        0.00000000    
  -1.8714012356313534       0.45735907438750556        0.00000000    
  -1.9692135141347491       0.33682090625349514        0.00000000    
  -2.0560300044135560       0.18174564900241594        0.00000000    
  -2.1325212360509362       -1.1623335490744409E-002   0.00000000    
  -2.1875079991199256      -0.23357854874586650        0.00000000    
  -2.2353003646510121      -0.47550807046557492        0.00000000    
  -2.2560202560775298      -0.76052896266498593        0.00000000    
  -2.3462972087619374      -0.89219643641213542        0.00000000    
  -14.731784527581610        11.483765336047849        0.00000000    
   6.5230029718987899       -7.5549589170729252        0.00000000    
   9.3107115092853991       -25.710132596873958        0.00000000    
   32.889065402623679       -37.848579570247537        0.00000000    
   45.294408669276194        41.278381019251235        0.00000000    
   2.9195343833435961      -0.54282676733696311        0.00000000    
   2.3857626116994726      -0.62193285495469142        0.00000000    
   2.2570882844228874      -0.45134763736665401        0.00000000    
   2.1792695666870565      -0.20480950784838858        0.00000000    
   2.1138892671784522       -7.7440093966035300E-003   0.00000000    
   2.0417271881160830       0.17116174135535728        0.00000000    
   1.9564473910456364       0.32119351920379025        0.00000000    
   1.8604809572533343       0.43826313999645744        0.00000000    
   1.7588438663470189       0.52965696114194438        0.00000000    
   1.6487123928560059       0.59831545152857413        0.00000000    
   1.5349108455858915       0.64857697805753345        0.00000000    
   1.4156377611031197       0.68491567561564615        0.00000000    
   1.2941335576280038       0.70985466521316165        0.00000000    
   1.1691853367016618       0.72708298156215989        0.00000000    
   1.0429648557273359       0.73781466591355394        0.00000000    
  0.91464631520286743       0.74471094710697516        0.00000000    
  0.78568879430591765       0.74819453936156555        0.00000000    
  0.65552061993821154       0.75012780246898136        0.00000000    
  0.52508834589790021       0.75047533534816624        0.00000000    
  0.39401595677983109       0.75055185614654518        0.00000000    
  0.26286272854781634       0.75004492474773843        0.00000000    
  0.13143836800172953       0.74990670066165832        0.00000000    
   0.0000000000000000       0.74962568422577636        0.00000000    
   0.0000000000000000       0.87819802667905444        0.00000000    
 -0.11968950549975708       0.87810455735407333        0.00000000    
 -0.23915468536057152       0.87879434662558453        0.00000000    
 -0.35845741369346990       0.87906879112499736        0.00000000    
 -0.47704963598320926       0.87970520511034345        0.00000000    
 -0.59526369176225047       0.87917982880856038        0.00000000    
 -0.71217320470135592       0.87804781340492977        0.00000000    
 -0.82839831924061014       0.87429273319826240        0.00000000    
 -0.94256448971405693       0.86813374779794428        0.00000000    
  -1.0556540927416052       0.85680525032653387        0.00000000    
  -1.1657547481789896       0.83995243640531680        0.00000000    
  -1.2743821016636974       0.81370505254696079        0.00000000    
  -1.3789363302740292       0.77671522197335818        0.00000000    
  -1.4817580288568035       0.72363855194308013        0.00000000    
  -1.5791653610507348       0.65153048391171275        0.00000000    
  -1.6745805030947882       0.55386370406662111        0.00000000    
  -1.7623565873559639       0.42590463935366091        0.00000000    
  -1.8469417366002916       0.26406355540856929        0.00000000    
  -1.9252045987065238        6.0812851866429957E-002   0.00000000    
  -1.9914639282051849      -0.18476864355808537        0.00000000    
  -2.0686513689984549      -0.39933816930238214        0.00000000    
  -2.3248615775668853      -0.55976876394345088        0.00000000    
  -70.364635125112116        67.037094354656716        0.00000000    
  -72.694220268035551       -41.730455992159087        0.00000000    
  -24.240967800201663       -24.048774541224866        0.00000000    
   4.9982998059174406       -41.243296115100847        0.00000000    
  -1.0015974802676522       -39.893869644218334        0.00000000    
   35.310053683649009       -5.3933263362190482        0.00000000    
   63.777801677906943        60.036009894768426        0.00000000    
   2.8754641457037846       0.23533934661433481        0.00000000    
   2.0561526693191121      -0.36063403501165692        0.00000000    
   1.9871071240914107      -0.14865884726606071        0.00000000    
   1.9278844169270519        6.0708336716508188E-002   0.00000000    
   1.8476103035975291       0.25514558761479411        0.00000000    
   1.7616176911729533       0.40848208245628786        0.00000000    
   1.6747982665985801       0.53376043509614668        0.00000000    
   1.5796449880701422       0.63095003548970285        0.00000000    
   1.4825315751842629       0.70426726354686298        0.00000000    
   1.3798755382487196       0.75908275025444283        0.00000000    
   1.2753200313416271       0.79823849480049391        0.00000000    
   1.1667893250979184       0.82656675575428840        0.00000000    
   1.0565885187924882       0.84551991824680262        0.00000000    
  0.94354422321633524       0.85864250578467483        0.00000000    
  0.82924319201879726       0.86650267895352628        0.00000000    
  0.71300803531214241       0.87159548512239682        0.00000000    
  0.59594323538700722       0.87395983099803198        0.00000000    
  0.47766122084098850       0.87535759540795277        0.00000000    
  0.35890017836621080       0.87550302767783594        0.00000000    
  0.23947877621205352       0.87566838360400390        0.00000000    
  0.11984343369973248       0.87534294486310615        0.00000000    
   0.0000000000000000       0.87547124172612834        0.00000000    
   0.0000000000000000       0.99098355981002106        0.00000000    
 -0.10632384890795367       0.99133237863119705        0.00000000    
 -0.21245122971212427       0.99115908601264580        0.00000000    
 -0.31791197784510750       0.99146752820539463        0.00000000    
 -0.42276071363494361       0.99074742610749145        0.00000000    
 -0.52621363939263222       0.98980458935100013        0.00000000    
 -0.62858233553050014       0.98670126193608132        0.00000000    
 -0.72871815951738750       0.98200022319755476        0.00000000    
 -0.82724646039043814       0.97312072914020642        0.00000000    
 -0.92259309522365562       0.96025450685104741        0.00000000    
  -1.0158476502729372       0.93985839036064311        0.00000000    
  -1.1049226382483552       0.91150144005987199        0.00000000    
  -1.1916810703368943       0.87023149515012777        0.00000000    
  -1.2732839753316434       0.81454688235463590        0.00000000    
  -1.3528524889382256       0.73759799928840120        0.00000000    
  -1.4257807049586761       0.63613954676879947        0.00000000    
  -1.4966540399859487       0.50227821592352351        0.00000000    
  -1.5563449344724170       0.33196602258870384        0.00000000    
  -1.6118242991315044       0.12665261142960463        0.00000000    
  -1.6502121972796380      -0.14596117544863296        0.00000000    
  -2.0279547208267030        1.6784326810426912E-002   0.00000000    
  -70.217159208563558        67.469524214370210        0.00000000    
  -42.063464942893837        38.893877659330251        0.00000000    
  -8.8522937466152101       -44.468822335218825        0.00000000    
  -27.647392665528802       -50.968564745972984        0.00000000    
  -16.559121620347142       -54.651041546685711        0.00000000    
  -2.5502860299120127       -34.495065515768530        0.00000000    
  -17.430489177169076       -32.223575466359371        0.00000000    
  -24.659172461115482        65.627191315711499        0.00000000    
   15.883156620660012        15.004169391068473        0.00000000    
   1.7987913051946987      -0.22578730361803312        0.00000000    
   1.6912987592157844      -0.10696748742446151        0.00000000    
   1.6325232728030463       0.13701517042708847        0.00000000    
   1.5680869932968180       0.32354914676195223        0.00000000    
   1.5089735437240870       0.48518458528754216        0.00000000    
   1.4365875041940503       0.61626339638583560        0.00000000    
   1.3626553513112538       0.71753250559708170        0.00000000    
   1.2818190605873707       0.79563449706168454        0.00000000    
   1.1990315235171811       0.85315909073471863        0.00000000    
   1.1112846089308352       0.89646457582302674        0.00000000    
   1.0211818046511185       0.92697418524722541        0.00000000    
  0.92719144671013332       0.94930365300728847        0.00000000    
  0.83103684196345395       0.96405767134116760        0.00000000    
  0.73195357641353120       0.97447181014961493        0.00000000    
  0.63118628117726627       0.98062880586508316        0.00000000    
  0.52836815502209056       0.98480943633921370        0.00000000    
  0.42440078883018584       0.98675737080199688        0.00000000    
  0.31915111402658208       0.98811396956437680        0.00000000    
  0.21324641223554189       0.98838354566124753        0.00000000    
  0.10672893418168261       0.98878060337301255        0.00000000    
   0.0000000000000000       0.98860595109742266        0.00000000    
   0.0000000000000000        1.0904781726786612        0.00000000    
  -9.1893372213805405E-002   1.0900549868840741        0.00000000    
 -0.18334203389378742        1.0900125202449928        0.00000000    
 -0.27412836435814980        1.0888611725688184        0.00000000    
 -0.36354781870541847        1.0876219718836129        0.00000000    
 -0.45159684077134377        1.0844319913954952        0.00000000    
 -0.53726612719987654        1.0801118424619258        0.00000000    
 -0.62078779764411218        1.0722471370982394        0.00000000    
 -0.70079321550905549        1.0614075339831752        0.00000000    
 -0.77783518173782484        1.0443563030635992        0.00000000    
 -0.85011211904734407        1.0212880865146137        0.00000000    
 -0.91869693035473687       0.98773154317995460        0.00000000    
 -0.98119979221296949       0.94326268598711016        0.00000000    
  -1.0395967017940408       0.88151550608180784        0.00000000    
  -1.0903415796901141       0.80094276707750500        0.00000000    
  -1.1368106597107226       0.69219207500525370        0.00000000    