 <VTKFile type="UnstructuredGrid" version="0.1" byte_order="BigEndian">
 <UnstructuredGrid>
 <Piece NumberOfPoints="        2601 " NumberOfCells="        2500 ">
 <PointData Scalars="scalars">
 <DataArray type="Float32" NumberOfComponents="3" Name="Velocity" Format="ascii">
   0.0000000000000000        0.0000000000000000        0.00000000    
  -7.9414334064914660E-002   0.0000000000000000        0.00000000    
 -0.15783502557933660        0.0000000000000000        0.00000000    
 -0.23429164170350167        0.0000000000000000        0.00000000    
 -0.30776774945342100        0.0000000000000000        0.00000000    
 -0.37732212550453276        0.0000000000000000        0.00000000    
 -0.44192119387808076        0.0000000000000000        0.00000000    
 -0.50067440468543989        0.0000000000000000        0.00000000    
 -0.55255309351082449        0.0000000000000000        0.00000000    
 -0.59676249860565478        0.0000000000000000        0.00000000    
 -0.63232735828083975        0.0000000000000000        0.00000000    
 -0.65862187687103013        0.0000000000000000        0.00000000    
 -0.67480455906499348        0.0000000000000000        0.00000000    
 -0.68051655987397208        0.0000000000000000        0.00000000    
 -0.67515785283685126        0.0000000000000000        0.00000000    
 -0.65874383246068435        0.0000000000000000        0.00000000    
 -0.63103144452996296        0.0000000000000000        0.00000000    
 -0.59249791084444303        0.0000000000000000        0.00000000    
 -0.54334642680363487        0.0000000000000000        0.00000000    
 -0.48454918990602891        0.0000000000000000        0.00000000    
 -0.41678132476911200        0.0000000000000000        0.00000000    
 -0.34146602698000728        0.0000000000000000        0.00000000    
 -0.25969119750862069        0.0000000000000000        0.00000000    
 -0.17321596902730271        0.0000000000000000        0.00000000    
  -8.3405825162445976E-002   0.0000000000000000        0.00000000    
   7.7979359364423739E-003   0.0000000000000000        0.00000000    
   9.8930529776078691E-002   0.0000000000000000        0.00000000    
  0.18802638236256070        0.0000000000000000        0.00000000    
  0.27370648638620465        0.0000000000000000        0.00000000    
  0.35412789183706245        0.0000000000000000        0.00000000    
  0.42816328661552866        0.0000000000000000        0.00000000    
  0.49422753608075143        0.0000000000000000        0.00000000    
  0.55157235974806496        0.0000000000000000        0.00000000    
  0.59898564117850006        0.0000000000000000        0.00000000    
  0.63616775873260112        0.0000000000000000        0.00000000    
  0.66235202570498231        0.0000000000000000        0.00000000    
  0.67768716615068170        0.0000000000000000        0.00000000    
  0.68186152140127121        0.0000000000000000        0.00000000    
  0.67540820414877023        0.0000000000000000        0.00000000    
  0.65841917514875836        0.0000000000000000        0.00000000    
  0.63170937246749004        0.0000000000000000        0.00000000    
  0.59568569541654881        0.0000000000000000        0.00000000    
  0.55133492689790753        0.0000000000000000        0.00000000    
  0.49928354752786158        0.0000000000000000        0.00000000    
  0.44059667445941647        0.0000000000000000        0.00000000    
  0.37604121525362683        0.0000000000000000        0.00000000    
  0.30669468430611263        0.0000000000000000        0.00000000    
  0.23341129849993739        0.0000000000000000        0.00000000    
  0.15724279122032872        0.0000000000000000        0.00000000    
   7.9102606245497128E-002   0.0000000000000000        0.00000000    
   0.0000000000000000        0.0000000000000000        0.00000000    
   0.0000000000000000        7.9729304210271162E-002   0.00000000    
  -7.9554039153435147E-002   7.9239069008430280E-002   0.00000000    
 -0.15812934418293428        7.7756927535896483E-002   0.00000000    
 -0.23472434700287476        7.5294691408506573E-002   0.00000000    
 -0.30838404516209417        7.1841114501092054E-002   0.00000000    
 -0.37808455067267294        6.7413767060841720E-002   0.00000000    
 -0.44290622119706302        6.2006971837610163E-002   0.00000000    
 -0.50181406157839381        5.5654079351268745E-002   0.00000000    
 -0.55395537513069926        4.8365923026989055E-002   0.00000000    
 -0.59831703750191656        4.0205144439193312E-002   0.00000000    
 -0.63417175909132306        3.1214436826019289E-002   0.00000000    
 -0.66059178856655676        2.1500111239485926E-002   0.00000000    
 -0.67706226309930739        1.1153045487902125E-002   0.00000000    
 -0.68283675526808318        3.3344748988073722E-004   0.00000000    
 -0.67772011050863568       -1.0808799285723860E-002   0.00000000    
 -0.66126467217461349       -2.2060659424486134E-002   0.00000000    
 -0.63370007596408240       -3.3216324715994158E-002   0.00000000    
 -0.59498877255985594       -4.4028512373818461E-002   0.00000000    
 -0.54585331029488615       -5.4258433931145239E-002   0.00000000    
 -0.48673204879944421       -6.3660064462008323E-002   0.00000000    
 -0.41883804757718979       -7.2001801896313042E-002   0.00000000    
 -0.34307159924684255       -7.9079944223276286E-002   0.00000000    
 -0.26105226558584133       -8.4714218908235134E-002   0.00000000    
 -0.17404039595762938       -8.8772879201452382E-002   0.00000000    
  -8.3918937975225497E-002  -9.1158722644917076E-002   0.00000000    
   7.8571780192465118E-003  -9.1821154448609943E-002   0.00000000    
   9.9303489024777383E-002  -9.0757750395662140E-002   0.00000000    
  0.18895986883204807       -8.7994481998253882E-002   0.00000000    
  0.27489351332333029       -8.3619266515786314E-002   0.00000000    
  0.35581992518759470       -7.7728550799484750E-002   0.00000000    
  0.42999901468713658       -7.0485933477657914E-002   0.00000000    
  0.49647322962602342       -6.2052530926573181E-002   0.00000000    
  0.55382428397522110       -5.2643347089103412E-002   0.00000000    
  0.60152395389539859       -4.2469604261595274E-002   0.00000000    
  0.63857544474732320       -3.1764004143634471E-002   0.00000000    
  0.66491475189281057       -2.0759569974277508E-002   0.00000000    
  0.68000979042206777       -9.6706089999286961E-003   0.00000000    
  0.68422380229973279        1.2822418716786064E-003   0.00000000    
  0.67746467370580010        1.1930203975455906E-002   0.00000000    
  0.66043206363120666        2.2091435099204838E-002   0.00000000    
  0.63339662142552244        3.1653809788396131E-002   0.00000000    
  0.59728157990353170        4.0484908784644232E-002   0.00000000    
  0.55262198812720897        4.8525451510914523E-002   0.00000000    
  0.50045941745078482        5.5688498535717577E-002   0.00000000    
  0.44150274518120586        6.1955046802847295E-002   0.00000000    
  0.37683163113000923        6.7271526454354982E-002   0.00000000    
  0.30726225637102789        7.1644379252627052E-002   0.00000000    
  0.23386160642689091        7.5039656497956145E-002   0.00000000    
  0.15751397717603061        7.7476480032944980E-002   0.00000000    
   7.9248307706601462E-002   7.8929374411639955E-002   0.00000000    
   0.0000000000000000        7.9421539540836861E-002   0.00000000    
   0.0000000000000000       0.15974377947646709        0.00000000    
  -7.9977190451376579E-002  0.15875582334745184        0.00000000    
 -0.15897554584941445       0.15581383362465548        0.00000000    
 -0.23603685646246270       0.15089409875330426        0.00000000    
 -0.31015788057030380       0.14402242942343632        0.00000000    
 -0.38040317852779065       0.13517825560729324        0.00000000    
 -0.44574597290144330       0.12440694818911971        0.00000000    
 -0.50529141676242439       0.11170738724296389        0.00000000    
 -0.55800610545199425        9.7168617376925032E-002   0.00000000    
 -0.60307794781861013        8.0835954828145373E-002   0.00000000    
 -0.63951106456502171        6.2871464772478930E-002   0.00000000    
 -0.66664856054943133        4.3400608753884871E-002   0.00000000    
 -0.68361137060531996        2.2685832561577145E-002   0.00000000    
 -0.68999971725629683        9.6349923732939934E-004   0.00000000    
 -0.68516440455571781       -2.1390808493917376E-002   0.00000000    
 -0.66908057736859394       -4.4017915735918067E-002   0.00000000    
 -0.64145780814244624       -6.6446433842103456E-002   0.00000000    
 -0.60274908014961270       -8.8218434643112742E-002   0.00000000    
 -0.55313013735719530      -0.10882291672022887        0.00000000    
 -0.49357750408127904      -0.12776947644250855        0.00000000    
 -0.42477257367467558      -0.14459132154576784        0.00000000    
 -0.34817180107236612      -0.15885764550461073        0.00000000    
 -0.26490356976044849      -0.17022408260099545        0.00000000    
 -0.17677618531776762      -0.17840226957765348        0.00000000    
  -8.5217066297499575E-002 -0.18320990927261049        0.00000000    
   7.7825543160859609E-003 -0.18454570442701448        0.00000000    
  0.10069116783138965      -0.18238812493932358        0.00000000    
  0.19149797050893222      -0.17682728993745492        0.00000000    
  0.27876533129075604      -0.16798746385089466        0.00000000    
  0.36060800089734807      -0.15612943493332879        0.00000000    
  0.43585798191686226      -0.14151411986400980        0.00000000    
  0.50289365614086801      -0.12453423370128744        0.00000000    
  0.56095265006606787      -0.10557169258983272        0.00000000    
  0.60880282035386324       -8.5091098967118972E-002   0.00000000    
  0.64616039202209197       -6.3551571959191991E-002   0.00000000    
  0.67226356570546442       -4.1414482985988224E-002   0.00000000    
  0.68730017848104719       -1.9147347293849072E-002   0.00000000    
  0.69098557300309160        2.8595737673374599E-003   0.00000000    
  0.68390102858765101        2.4196545088528434E-002   0.00000000    
  0.66617539830695294        4.4583334342718349E-002   0.00000000    
  0.63866673423872300        6.3706016818311381E-002   0.00000000    
  0.60181545149064719        8.1399026025931326E-002   0.00000000    
  0.55663804349631807        9.7448334039954287E-002   0.00000000    
  0.50378299395816584       0.11178323622222786        0.00000000    
  0.44432981927695187       0.12427015606696756        0.00000000    
  0.37905393672223892       0.13490341379695514        0.00000000    
  0.30903419821937522       0.14360160517187168        0.00000000    
  0.23512197369983465       0.15039530504303836        0.00000000    
  0.15836120836721268       0.15522922607150702        0.00000000    
   7.9655035976004027E-002  0.15814847023420189        0.00000000    
   0.0000000000000000       0.15910578740120460        0.00000000    
   0.0000000000000000       0.24029234245040526        0.00000000    
  -8.0651608497286018E-002  0.23883605932247393        0.00000000    
 -0.16035317350414513       0.23443351805509824        0.00000000    
 -0.23813305748778979       0.22711560891958193        0.00000000    
 -0.31305589463510347       0.21684478051315156        0.00000000    
 -0.38412015678974809       0.20366546462946591        0.00000000    
 -0.45040936877758175       0.18755174552954249        0.00000000    
 -0.51089323922269569       0.16859190420812084        0.00000000    
 -0.56469884486079258       0.14680439474081525        0.00000000    
 -0.61078985688104181       0.12236303185033423        0.00000000    
 -0.64839073820340687        9.5378385820716199E-002   0.00000000    
 -0.67651574227382305        6.6156187759418908E-002   0.00000000    
 -0.69457556568092693        3.4952887020950764E-002   0.00000000    
 -0.70173359442759164        2.2428201742805665E-003   0.00000000    
 -0.69770776217420216       -3.1531274382665175E-002   0.00000000    
 -0.68194637344866205       -6.5722665761400192E-002   0.00000000    
 -0.65460721710641090       -9.9703609382608624E-002   0.00000000    
 -0.61556896946371553      -0.13270823473993160        0.00000000    
 -0.56552984180256516      -0.16399118707435120        0.00000000    
 -0.50490175754559086      -0.19278192362327107        0.00000000    
 -0.43493774681577746      -0.21834781549861601        0.00000000    
 -0.35658682766647426      -0.24005284330552765        0.00000000    
 -0.27155815919211823      -0.25732578458341249        0.00000000    
 -0.18122176866059653      -0.26976434257169740        0.00000000    
  -8.7564774074764803E-002 -0.27706394988164923        0.00000000    
   7.8216542031494286E-003 -0.27907771271178100        0.00000000    
  0.10285804115087437      -0.27580111711455152        0.00000000    
  0.19595313681719298      -0.26731619610837798        0.00000000    
  0.28508730078379596      -0.25390008242541112        0.00000000    
  0.36887195304852710      -0.23584413823234848        0.00000000    
  0.44548469946121616      -0.21366214399431185        0.00000000    
  0.51391039262003912      -0.18784757695589258        0.00000000    
  0.57266905813921887      -0.15907600877688305        0.00000000    
  0.62123608299318112      -0.12800397792372489        0.00000000    
  0.65859854120596573       -9.5358722881074498E-002   0.00000000    
  0.68475389554195643       -6.1865860085151700E-002   0.00000000    
  0.69920653426743740       -2.8185221693454051E-002   0.00000000    
  0.70241449293695679        5.0040949739362448E-003   0.00000000    
  0.69435612689178516        3.7194934344587739E-002   0.00000000    
  0.67582729552100085        6.7839406736955543E-002   0.00000000    
  0.64717375171239577        9.6612152302693266E-002   0.00000000    
  0.60939292989786531       0.12312499510323602        0.00000000    
  0.56307694638876671       0.14721575646759250        0.00000000    
  0.50931041857227333       0.16863739114858514        0.00000000    
  0.44883194180242847       0.18734765259291342        0.00000000    
  0.38273488114749366       0.20319886048027816        0.00000000    
  0.31183924865985585       0.21622152948002279        0.00000000    
  0.23720350028540216       0.22632335362877457        0.00000000    
  0.15969679348529234       0.23356864961920443        0.00000000    
   8.0325720048024504E-002  0.23788629251514318        0.00000000    
   0.0000000000000000       0.23934872114472400        0.00000000    
   0.0000000000000000       0.32163795526402350        0.00000000    
  -8.1551168007330158E-002  0.31969322301393155        0.00000000    
 -0.16217073300217755       0.31389748436542880        0.00000000    
 -0.24093972358376711       0.30420051717532332        0.00000000    
 -0.31689821336166218       0.29064119918232167        0.00000000    
 -0.38913106513611756       0.27316615989061288        0.00000000    
 -0.45663691612535195       0.25184611324478723        0.00000000    
 -0.51851147142529319       0.22665596223952794        0.00000000    
 -0.57371286273111388       0.19774733365226849        0.00000000    
 -0.62138002215866428       0.16517826438865735        0.00000000    
 -0.66045971592666164       0.12924372837131906        0.00000000    
 -0.69020199178296282        9.0158125137886916E-002   0.00000000    
 -0.70961479809652761        4.8423579361341021E-002   0.00000000    
 -0.71816999809472792        4.4853565814768227E-003   0.00000000    
 -0.71506233288286014       -4.0907308257290331E-002   0.00000000    
 -0.70013403361912707       -8.7036319872974846E-002   0.00000000    
 -0.67293596298556768      -0.13292718224935660        0.00000000    
 -0.63383485904399939      -0.17762401345404988        0.00000000    
 -0.58290675046546703      -0.22004264460273298        0.00000000    
 -0.52113628122502753      -0.25912901958862400        0.00000000    
 -0.44921649404156211      -0.29388451744961436        0.00000000    
 -0.36871200102231838      -0.32337155351917279        0.00000000    
 -0.28088007377935753      -0.34686767009034680        0.00000000    
 -0.18768902797604609      -0.36374989339554048        0.00000000    
  -9.0767280547268014E-002 -0.37365714107578973        0.00000000    
   7.7401986521505508E-003 -0.37637842899084956        0.00000000    
  0.10608744568373341      -0.37188403481818655        0.00000000    
  0.20213094575478810      -0.36037187413801414        0.00000000    
  0.29424575117626844      -0.34209337378718663        0.00000000    
  0.38041746667617415      -0.31760721463121910        0.00000000    
  0.45934824727688639      -0.28744259461201882        0.00000000    
  0.52929747658629644      -0.25244204880261650        0.00000000    
  0.58946138875957854      -0.21340411462557249        0.00000000    
  0.63854198607543511      -0.17132349424130749        0.00000000    
  0.67631468717176890      -0.12717436587527917        0.00000000    
  0.70203787013461438       -8.1928754386541902E-002   0.00000000    
  0.71603273623004127       -3.6569832215316241E-002   0.00000000    
  0.71810792287888137        8.1055601803403186E-003   0.00000000    
  0.70900085135164104        5.1258906708603509E-002   0.00000000    
  0.68896139874083528        9.2343718357069504E-002   0.00000000    
  0.65898071325572893       0.13074206997466714        0.00000000    
  0.61960387410284901       0.16615273840083813        0.00000000    
  0.57193433970069851       0.19817353107999292        0.00000000    
  0.51668542557553321       0.22669505847962956        0.00000000    
  0.45497529437508422       0.25147859323129662        0.00000000    
  0.38760122922314083       0.27253904565017900        0.00000000    
  0.31564159461897506       0.28973661140143936        0.00000000    
  0.23993525960509060       0.30315035509672333        0.00000000    
  0.16149920589435521       0.31268440866199348        0.00000000    
   8.1202282543817783E-002  0.31843853026080726        0.00000000    
   0.0000000000000000       0.32032448599117230        0.00000000    
   0.0000000000000000       0.40393764914161268        0.00000000    
  -8.2616370139039982E-002  0.40156106728295637        0.00000000    
 -0.16434499739200389       0.39437783234494461        0.00000000    
 -0.24428025307615078       0.38242441546130190        0.00000000    
 -0.32153122047016724       0.36562675806947043        0.00000000    
 -0.39514970949178957       0.34403194179881252        0.00000000    
 -0.46423197484703310       0.31756844768276965        0.00000000    
 -0.52776832885981584       0.28634453711305075        0.00000000    
 -0.58485250925492649       0.25034433048187066        0.00000000    
 -0.63441334189382037       0.20980925962379060        0.00000000    
 -0.67558352460256088       0.16486260961560595        0.00000000    
 -0.70726767238637889       0.11596566753152346        0.00000000    
 -0.72872395590378258        6.3485126801838265E-002   0.00000000    
 -0.73892836162962505        8.1834148623486612E-003   0.00000000    
 -0.73740719471313509       -4.9234198662885781E-002   0.00000000    
 -0.72337468158725471      -0.10767024186012417        0.00000000    
 -0.69681556836083380      -0.16605044411811204        0.00000000    
 -0.65740222584682473      -0.22301519804442552        0.00000000    
 -0.60576074950344760      -0.27722104492979327        0.00000000    
 -0.54222008838641966      -0.32726174962295507        0.00000000    
 -0.46811664900122096      -0.37177501397913815        0.00000000    
 -0.38449651243143057      -0.40960568658290269        0.00000000    
 -0.29327522201932771      -0.43968675467662099        0.00000000    
 -0.19606911705380531      -0.46132795958251988        0.00000000    
  -9.5093958153033079E-002 -0.47397598121315498        0.00000000    
   7.7536286366736941E-003 -0.47741465484711876        0.00000000    
  0.11020754923316721      -0.47164897658475669        0.00000000    
  0.21038735609265291      -0.45683023930646394        0.00000000    
  0.30610486017481264      -0.43346731811722772        0.00000000    
  0.39574177422696716      -0.40204189985757233        0.00000000    
  0.47729588932800682      -0.36349280508246851        0.00000000    
  0.54962801964895824      -0.31867319796661070        0.00000000    
  0.61111399110162934      -0.26882284908287712        0.00000000    
  0.66125148604819572      -0.21512285205017229        0.00000000    
  0.69899533120352031      -0.15889155431378821        0.00000000    
  0.72449879597147848      -0.10143821368218441        0.00000000    
  0.73736147095997362       -4.3917913999734659E-002   0.00000000    
  0.73826151705022547        1.2478409222762034E-002   0.00000000    
  0.72734395809379770        6.6910688153253184E-002   0.00000000    
  0.70561175178895652       0.11846359582563128        0.00000000    
  0.67357533468117736       0.16663929510191541        0.00000000    
  0.63238000172961772       0.21082768537607757        0.00000000    
  0.58273345960076628       0.25081466063819302        0.00000000    
  0.52579805609907759       0.28623824654682062        0.00000000    
  0.46236564318751638       0.31707794927806321        0.00000000    
  0.39354728333819050       0.34313211460370846        0.00000000    
  0.32016239209158132       0.36448806830014313        0.00000000    
  0.24324431310844793       0.38102331219455321        0.00000000    
  0.16362458197233801       0.39286723641197985        0.00000000    
   8.2258982029494929E-002  0.39991822580420233        0.00000000    
   0.0000000000000000       0.40230605502157607        0.00000000    
   0.0000000000000000       0.48736838888369582        0.00000000    
  -8.3787650705999542E-002  0.48453434838642601        0.00000000    
 -0.16673068088262194       0.47607620867098216        0.00000000    
 -0.24798301867639302       0.46191363261428897        0.00000000    
 -0.32666853837725784       0.44207402801069129        0.00000000    
 -0.40191506013902634       0.41644968264268423        0.00000000    
 -0.47278013964588234       0.38509805169972694        0.00000000    
 -0.53835541023805555       0.34792655770334985        0.00000000    
 -0.59760537115732293       0.30509645120407869        0.00000000    
 -0.64959923779929352       0.25661183818534772        0.00000000    
 -0.69320665354573208       0.20283762950675641        0.00000000    
 -0.72752716418240648       0.14399530606436453        0.00000000    
 -0.75138468783833234        8.0769295439260508E-002   0.00000000    
 -0.76402228962647534        1.3741253742999360E-002   0.00000000    
 -0.76434966264955795       -5.5985831440590439E-002   0.00000000    
 -0.75194544341391512      -0.12735534143928884        0.00000000    
 -0.72603692117862073      -0.19883298000485769        0.00000000    
 -0.68679247972363278      -0.26889044612149748        0.00000000    
 -0.63405176521418316      -0.33572798771024104        0.00000000    
 -0.56878769947424179      -0.39755953369383551        0.00000000    
 -0.49167797727496471      -0.45269039149784668        0.00000000    
 -0.40450015173342679      -0.49948827116951028        0.00000000    
 -0.30875274854591112      -0.53677286369506061        0.00000000    
 -0.20672540546039220      -0.56347529860885537        0.00000000    
 -0.10044181745492099      -0.57908738909867763        0.00000000    
   7.6833687851451489E-003 -0.58327601998498857        0.00000000    
  0.11549203510841417      -0.57605019837230165        0.00000000    
  0.22064039043893044      -0.55775717970257699        0.00000000    
  0.32114714878551870      -0.52876464015540192        0.00000000    
  0.41477528257978741      -0.49000962565966305        0.00000000    
  0.49997889798165196      -0.44228280978856882        0.00000000    
  0.57477560756184887      -0.38701203315581456        0.00000000    
  0.63829888915844490      -0.32549326694785480        0.00000000    
  0.68911770378860204      -0.25940874375649448        0.00000000    
  0.72715701187237636      -0.19038881585101708        0.00000000    
  0.75173509239433278      -0.12002249742994452        0.00000000    
  0.76345772675151624       -4.9918939601577755E-002   0.00000000    
  0.76233811882884051        1.8698996661404500E-002   0.00000000    
  0.74941251669664022        8.4533261799880979E-002   0.00000000    
  0.72516832347354765       0.14681742171073250        0.00000000    
  0.69082596842786803       0.20466424136750394        0.00000000    
  0.64711565126882098       0.25770838922429584        0.00000000    
  0.59527407279084532       0.30542207739463256        0.00000000    
  0.53611539430356148       0.34772491178195264        0.00000000    
  0.47080497578286717       0.38433411547361745        0.00000000    
  0.40016258782477548       0.41533669621757086        0.00000000    
  0.32525064380976393       0.44058032194693048        0.00000000    
  0.24687369649074431       0.46022608485132221        0.00000000    
  0.16599261054115880       0.47416528084053028        0.00000000    
   8.3408520904606973E-002  0.48256987095585546        0.00000000    
   0.0000000000000000       0.48532191280424131        0.00000000    
   0.0000000000000000       0.57194161025068257        0.00000000    
  -8.4979337073772879E-002  0.56872811479940255        0.00000000    
 -0.16917443060664497       0.55902056596839067        0.00000000    
 -0.25179193020476670       0.54283911270826390        0.00000000    
 -0.33201857943927926       0.52006071685368516        0.00000000    
 -0.40900640543796768       0.49069734155893435        0.00000000    
 -0.48188584546149832       0.45459491231616073        0.00000000    
 -0.54970674543869180       0.41182586765436119        0.00000000    
 -0.61153218174176582       0.36227253847841601        0.00000000    
 -0.66627197458475784       0.30616941039333945        0.00000000    
 -0.71293865205169926       0.24355415051586465        0.00000000    
 -0.75029742237757191       0.17495806601445718        0.00000000    
 -0.77737766544966191       0.10074430222161254        0.00000000    
 -0.79286793414141055        2.1894117436489037E-002   0.00000000    
 -0.79596796391358782       -6.0711292333698035E-002   0.00000000    
 -0.78547912845147227      -0.14552293524866922        0.00000000    
 -0.76104260974295235      -0.23101042713350936        0.00000000    
 -0.72190771521876751      -0.31509233497738437        0.00000000    
 -0.66850848944408914      -0.39566603913209791        0.00000000    
 -0.60094374417680763      -0.47045029328512916        0.00000000    
 -0.52067376299345669      -0.53717933528228456        0.00000000    
 -0.42887517237992417      -0.59397574354652538        0.00000000    
 -0.32786648575261668      -0.63904148112558434        0.00000000    
 -0.21971645357034711      -0.67138405645281451        0.00000000    
 -0.10705625344344669      -0.69012241937957730        0.00000000    
   7.6561792847409096E-003 -0.69507860867917715        0.00000000    
  0.12190187009738124      -0.68630196680646005        0.00000000    
  0.23328598425546079      -0.66403788076380266        0.00000000    
  0.33939907957333332      -0.62910379275121309        0.00000000    
  0.43820890281479685      -0.58210843010614555        0.00000000    
  0.52738617972048252      -0.52456489764252268        0.00000000    
  0.60557921618254751      -0.45771969135029422        0.00000000    
  0.67087313586386610      -0.38360281002463037        0.00000000    
  0.72285859642018169      -0.30410347587184988        0.00000000    
  0.76045079476948629      -0.22132559016264397        0.00000000    
  0.78414542587787861      -0.13735843475372106        0.00000000    
  0.79376203138664758       -5.3922242138293386E-002   0.00000000    
  0.79039239294002828        2.7191545563022852E-002   0.00000000    
  0.77450494353166432       0.10485376444360557        0.00000000    
  0.74744094292233143       0.17780511289573528        0.00000000    
  0.70998980150381907       0.24547004665076769        0.00000000    
  0.66350603909241423       0.30709666350849590        0.00000000    
  0.60886671566282213       0.36251470502136218        0.00000000    
  0.54732352862222544       0.41133414968082815        0.00000000    
  0.47972764967237752       0.45363117504793360        0.00000000    
  0.40719085734943838       0.48921881692272079        0.00000000    
  0.33050934243679725       0.51829166017137451        0.00000000    
  0.25065978070335759       0.54074125567847808        0.00000000    
  0.16839953623103748       0.55679144043651874        0.00000000    
   8.4595026087412151E-002  0.56633231113988469        0.00000000    
   0.0000000000000000       0.56956301961277034        0.00000000    
   0.0000000000000000       0.65767797757142932        0.00000000    
  -8.6095250503892856E-002  0.65406633505688827        0.00000000    
 -0.17148105541687741       0.64326324415652325        0.00000000    
 -0.25542529813152248       0.62515817683427088        0.00000000    
 -0.33719016448642397       0.59973316831604562        0.00000000    
 -0.41597977316517265       0.56680232477619508        0.00000000    
 -0.49096752950486267       0.52635712546025903        0.00000000    
 -0.56126348088186173       0.47818050586745670        0.00000000    
 -0.62588726689571439       0.42236712257956427        0.00000000    
 -0.68384080105539746       0.35876815329869216        0.00000000    
 -0.73393581805553842       0.28771710207408363        0.00000000    
 -0.77508454977892949       0.20930261651015558        0.00000000    
 -0.80588241238501623       0.12427785739975418        0.00000000    
 -0.82523897917059053        3.3207397741144715E-002   0.00000000    
 -0.83163226377667576       -6.2531258265240489E-002   0.00000000    
 -0.82418605323038530      -0.16163801531925970        0.00000000    