 <VTKFile type="UnstructuredGrid" version="0.1" byte_order="BigEndian">
 <UnstructuredGrid>
 <Piece NumberOfPoints="        2601 " NumberOfCells="        2500 ">
 <PointData Scalars="scalars">
 <DataArray type="Float32" NumberOfComponents="3" Name="Velocity" Format="ascii">
   0.0000000000000000        0.0000000000000000        0.00000000    
  -7.3953784094577826E-002   0.0000000000000000        0.00000000    
 -0.15548276767070882        0.0000000000000000        0.00000000    
 -0.25041232844402800        0.0000000000000000        0.00000000    
 -0.47122149127557972        0.0000000000000000        0.00000000    
  -1.0312818698759945        0.0000000000000000        0.00000000    
  -2.5363022293439994        0.0000000000000000        0.00000000    
  -62.433923886987131        0.0000000000000000        0.00000000    
  -42.511812198398758        0.0000000000000000        0.00000000    
   15.634451822826550        0.0000000000000000        0.00000000    
   2.8167659073574240        0.0000000000000000        0.00000000    
   36.196082484660508        0.0000000000000000        0.00000000    
   65.050145410192073        0.0000000000000000        0.00000000    
   33.060244339940247        0.0000000000000000        0.00000000    
   16.717473670725941        0.0000000000000000        0.00000000    
   75.960645185855057        0.0000000000000000        0.00000000    
   44.982535304191622        0.0000000000000000        0.00000000    
  -56.454295241704806        0.0000000000000000        0.00000000    
  -45.328707443159459        0.0000000000000000        0.00000000    
   8.1462824007795049        0.0000000000000000        0.00000000    
   10.224895916896488        0.0000000000000000        0.00000000    
  -6.0657910439801137        0.0000000000000000        0.00000000    
   19.468285735953337        0.0000000000000000        0.00000000    
   48.229544837347021        0.0000000000000000        0.00000000    
  -6.9508472372631180        0.0000000000000000        0.00000000    
  -45.957322386821730        0.0000000000000000        0.00000000    
  -12.303349376583808        0.0000000000000000        0.00000000    
   6.1381871796843690        0.0000000000000000        0.00000000    
  -1.9957718661928743        0.0000000000000000        0.00000000    
   17.193721589638393        0.0000000000000000        0.00000000    
   14.025875941395261        0.0000000000000000        0.00000000    
  -24.514971165374138        0.0000000000000000        0.00000000    
  -42.085361537163521        0.0000000000000000        0.00000000    
  -76.313141074252741        0.0000000000000000        0.00000000    
  -68.506845095424794        0.0000000000000000        0.00000000    
  -31.005772043974460        0.0000000000000000        0.00000000    
  -20.581892808691880        0.0000000000000000        0.00000000    
  -18.783794247663586        0.0000000000000000        0.00000000    
  -37.587180750776426        0.0000000000000000        0.00000000    
  -11.783596691672114        0.0000000000000000        0.00000000    
   1.3449696491311858        0.0000000000000000        0.00000000    
   23.651565732488219        0.0000000000000000        0.00000000    
   37.817902278315621        0.0000000000000000        0.00000000    
   2.9363070098241941        0.0000000000000000        0.00000000    
   1.4355820664944619        0.0000000000000000        0.00000000    
  0.57815447366601525        0.0000000000000000        0.00000000    
  0.33227138278993007        0.0000000000000000        0.00000000    
  0.22008854358915059        0.0000000000000000        0.00000000    
  0.14135156217251538        0.0000000000000000        0.00000000    
   6.8077409846533557E-002   0.0000000000000000        0.00000000    
   0.0000000000000000        0.0000000000000000        0.00000000    
   0.0000000000000000        7.1737000410100782E-002   0.00000000    
  -7.1686834005983857E-002   7.3903617688294232E-002   0.00000000    
 -0.14801126337888615        8.3949795258474749E-002   0.00000000    
 -0.24245718035348679       0.10542568248697015        0.00000000    
 -0.34180257609624853       0.21472887608418306        0.00000000    
 -0.37996436547173607       0.38349329188407971        0.00000000    
  -5.4136669691763631E-002  0.79569937186100070        0.00000000    
   29.468839636778760        29.578945979945193        0.00000000    
   18.280606573348368       -38.312824604491169        0.00000000    
  -4.6554081588254554        3.1025753160393279        0.00000000    
   8.0413056663831384       -2.9816032251781794        0.00000000    
 -0.72399396756234302       -21.632413717586545        0.00000000    
   4.9490853577628551       -12.894728532681459        0.00000000    
   43.029826946680423        6.8038880146077254        0.00000000    
   38.771235275204546        13.797474326660728        0.00000000    
  -16.772727133955282       -17.496683432068792        0.00000000    
  -12.530626904715955        44.232693085051643        0.00000000    
   8.0822614142938356        36.591249142352076        0.00000000    
   12.924613463007482       -52.559188989107192        0.00000000    
   8.7055933740738816        3.3032192345814080        0.00000000    
  -2.3368334372835098        5.6605940611342946        0.00000000    
   4.3770335910231228        3.9162258718815495        0.00000000    
  -9.5989669141093863       -15.474302146269384        0.00000000    
  -25.649731855581130        2.7638079867212193        0.00000000    
   4.3094039948756659        22.457448237753638        0.00000000    
   24.248906378402932       -3.3904754714783869        0.00000000    
   5.5796275647663132       -11.594218724940440        0.00000000    
  -1.6947498671477426       0.42705960072149318        0.00000000    
   4.5526642269119693        1.4594853511850137        0.00000000    
  -5.2390824608112672       -10.857232119281266        0.00000000    
  -3.9241466468184951        12.710141953512721        0.00000000    
   13.753522026069364        8.1530364801715169        0.00000000    
   9.3161048417045400        13.854771075316332        0.00000000    
   4.7344668708349147        24.954646432019000        0.00000000    
  -20.639940834235375       -7.3865347063357190        0.00000000    
  -34.218876202588284       -16.535602977301927        0.00000000    
 -0.65970591661552702       -27.447446544518584        0.00000000    
   9.6056501363830193        15.383991929927117        0.00000000    
  -22.162476118820734        35.187520827815277        0.00000000    
  -48.177543700299076       -34.976037306027408        0.00000000    
   28.340358238311012       -54.670430973966845        0.00000000    
   39.523038484720516        21.181154643610835        0.00000000    
  -14.885366429955065        19.060913724654828        0.00000000    
   9.9225046734341057E-002  0.83609006656298712        0.00000000    
  0.24123637573903201       0.52262354716591430        0.00000000    
  0.37407195964315948       0.20196846174336960        0.00000000    
  0.30054428326548216       0.11744230550750237        0.00000000    
  0.21203473432921843        8.3250082627198074E-002   0.00000000    
  0.13386114818270892        7.3660484933860210E-002   0.00000000    
   6.5972796316271634E-002   6.7502019256582807E-002   0.00000000    
   0.0000000000000000        6.6548186904301615E-002   0.00000000    
   0.0000000000000000       0.13796838833537639        0.00000000    
  -6.3652861682393647E-002  0.14301192544929553        0.00000000    
 -0.13028575254128522       0.15779880772711580        0.00000000    
 -0.20216919121813451       0.19790602566744717        0.00000000    
 -0.25895789402028579       0.27838263144627973        0.00000000    
 -0.26441466259879931       0.36345809447403238        0.00000000    
 -0.19350758326975073       0.41899979415958433        0.00000000    
 -0.11216151763029109       0.35132318554690906        0.00000000    
  0.88014675582444446        1.1107229804794254        0.00000000    
  -5.3104960891330641       -7.1943146911896800        0.00000000    
  -11.543541720143299       0.85161858844586125        0.00000000    
  -19.366761983372310       -8.8771156334377270        0.00000000    
  -39.322848622657908       -11.367019302279267        0.00000000    
  -61.241694259078422       -10.885717167908023        0.00000000    
  -48.634506435387166        23.138483357556300        0.00000000    
  -22.533743645116008        2.6055071565144030        0.00000000    
  -11.086581708128833        8.4412403307607775        0.00000000    
   19.228179112351544        21.455052757327099        0.00000000    
   9.0184825685326437       -32.055648108505927        0.00000000    
  -13.332253011153139        9.3694340231179236        0.00000000    
  -3.1889605852033283       0.49351365847559969        0.00000000    
  -1.6412736195518931       0.82175228104018361        0.00000000    
 -0.34948043774059134       0.30437876831690297        0.00000000    
   1.4087873314184145        1.2776242448244495        0.00000000    
 -0.84236312537484825       -3.7643534138622341        0.00000000    
  -1.1726268122301629        3.2220874836062054        0.00000000    
  0.77045510616568114       -1.4805847845840083        0.00000000    
  -1.0646234709708884      -0.57711833042563054        0.00000000    
  -3.1412817646523252       -1.7070925179758778        0.00000000    
  -2.8630881723702175        1.8228988453703361        0.00000000    
  -2.5265953777404753       -1.6214176198531167        0.00000000    
 -0.87449264732285448        3.1548246502971562        0.00000000    
   12.361901458430433        10.054005983808484        0.00000000    
   34.138657376121778        11.560293576459026        0.00000000    
   55.751767776470601        9.7691154534582463        0.00000000    
   50.750243608880055       -15.110793601737724        0.00000000    
   12.182153279438946       -23.863335877160470        0.00000000    
   1.1782329524002237        12.538445536036598        0.00000000    
   42.485689981488463        28.493736447247610        0.00000000    
   55.718964671875831       -15.500460034940891        0.00000000    
  -27.242177908516812       -67.702767603884197        0.00000000    
  -49.483887894053943        45.272521012074854        0.00000000    
  -2.2113007868871812        2.1053651631201165        0.00000000    
   2.7161941895121777E-002  0.56858442205368975        0.00000000    
  0.32995028691204831       0.34532951765340447        0.00000000    
  0.30679389884606417       0.26958329541656539        0.00000000    
  0.24023808784881281       0.18991095920684775        0.00000000    
  0.18028953831226963       0.15923952739853456        0.00000000    
  0.11793186459846450       0.13820230002081074        0.00000000    
   5.7978171713046221E-002  0.13080224891957151        0.00000000    
   0.0000000000000000       0.12719892526874454        0.00000000    
   0.0000000000000000       0.19566923459377630        0.00000000    
  -5.1381863365925040E-002  0.20034580423724657        0.00000000    
 -0.10272819467846236       0.21844415110859014        0.00000000    
 -0.14738919509810261       0.25380512138046546        0.00000000    
 -0.16987003109993504       0.30175307453534544        0.00000000    
 -0.16209343822885827       0.33776782709055331        0.00000000    
 -0.13487951489411432       0.34656905887778228        0.00000000    
  -8.5467475216511796E-002  0.29299581551110027        0.00000000    
  -4.9251774130473935E-002  0.14052637597310766        0.00000000    
  -5.3545478461933041E-002  -2.9181537016433005E-002   0.00000000    
  -6.2551274631180459E-002  -7.1463137946638208E-002   0.00000000    
  -6.2651206952897970E-002 -0.13071371114019639        0.00000000    
  -6.5118029906148414E-002 -0.15486776176151582        0.00000000    
  -6.7177922824810776E-002 -0.17696317849948026        0.00000000    
  -6.7893122689064472E-002 -0.17674325539501234        0.00000000    
  -5.7927274871385707E-002 -0.18999486859227785        0.00000000    
  -5.1638478338825726E-002 -0.21670837755547515        0.00000000    
  -5.1306167804683799E-002 -0.20209166515692395        0.00000000    
  -5.3184201824610429E-002 -0.18692910806779739        0.00000000    
  -5.2372698167377045E-002 -0.14936090121015333        0.00000000    
  -5.0104744034598463E-002 -0.13325179727376041        0.00000000    
  -5.2372262320121953E-002  -9.6901710606502781E-002   0.00000000    
  -4.1050364658480595E-002  -8.0082319509280339E-002   0.00000000    
  -3.0134445658542588E-002 -0.10709835550800492        0.00000000    
  -2.7332668923785469E-002 -0.13128213351184689        0.00000000    
  -1.4737282650631326E-003 -0.10657905055006439        0.00000000    
   2.0233546463261823E-002 -0.11670744355112454        0.00000000    
   2.3416034677769499E-002 -0.10909958277253747        0.00000000    
   2.3181182777094352E-002  -9.8218120044814478E-002   0.00000000    
   2.8250949834930230E-002  -6.9238911959549204E-002   0.00000000    
   3.0519527103659138E-002  -6.8041234422998378E-002   0.00000000    
   3.8249875174448091E-002  -5.8384813126985409E-002   0.00000000    
  0.10283281875305418       -3.3761606245223549E-002   0.00000000    
  0.12114319000216330      -0.14700512229571619        0.00000000    
  0.11115488450350351      -0.12670794270553185        0.00000000    
  0.10154083756158058      -0.20383199116790957        0.00000000    
   7.2004398375175097E-002 -0.17267071937068126        0.00000000    
   7.0233750087542041E-002 -0.14652864674441027        0.00000000    
   7.1811006611315661E-002 -0.13032365570829946        0.00000000    
   7.5218973388798710E-002 -0.11308258951394545        0.00000000    
   5.7816632147013658E-002 -0.11160012824554012        0.00000000    
   2.7627127585107512E-002  -4.6746974100066313E-002   0.00000000    
   4.1269945718801992E-002  0.13840322392700916        0.00000000    
   9.2792221672467812E-002  0.24556135650830790        0.00000000    
  0.15827621461802846       0.30008024523327093        0.00000000    
  0.19831716194245952       0.29794800857663367        0.00000000    
  0.18257547175999855       0.24384374722482002        0.00000000    
  0.13751198996685554       0.21031877070829930        0.00000000    
   9.3562050028966767E-002  0.19343067036088818        0.00000000    
   4.6731199611823641E-002  0.18235842188021356        0.00000000    
   0.0000000000000000       0.18035212363116604        0.00000000    
   0.0000000000000000       0.23959806046426799        0.00000000    
  -3.6793378123829400E-002  0.24459221985469268        0.00000000    
  -6.9976310805636779E-002  0.25872699948368694        0.00000000    
  -9.3373430369615706E-002  0.28158039298722243        0.00000000    
 -0.10083013174800130       0.30391534030711187        0.00000000    
  -9.0880464476707154E-002  0.31787930117486612        0.00000000    
  -5.7325104179653863E-002  0.30568830116048146        0.00000000    
  -1.4113634763406784E-002  0.24125306413332251        0.00000000    
   1.1591210593058218E-002  0.13034858090755574        0.00000000    
   5.0070230907184115E-004  -3.6195293376059825E-003   0.00000000    
  -1.6108750310684074E-002  -7.1409896836604883E-002   0.00000000    
  -2.6249035786404754E-002 -0.12052673445357213        0.00000000    
  -3.7075506539586023E-002 -0.15176144474188791        0.00000000    
  -4.4223480876021182E-002 -0.17086162826415266        0.00000000    
  -4.6196562818675499E-002 -0.18015652382363606        0.00000000    
  -4.5489731541456017E-002 -0.19725427925860908        0.00000000    
  -5.1349124443088201E-002 -0.20987837052138589        0.00000000    
  -5.9144554080557632E-002 -0.20145855308773691        0.00000000    
  -6.4566450251463472E-002 -0.18026228994633470        0.00000000    
  -6.5012709462636417E-002 -0.15639296377774006        0.00000000    
  -6.2910189242689360E-002 -0.13059020905897967        0.00000000    
  -5.3255544083709520E-002 -0.10695042569480846        0.00000000    
  -3.4838156135733767E-002  -9.9772890030657438E-002   0.00000000    
  -1.9770673109231748E-002 -0.11339118701312340        0.00000000    
  -1.3107944255799088E-002 -0.13445380759495651        0.00000000    
  -5.2300760063693098E-003 -0.13714418537533019        0.00000000    
   8.0478128141051528E-003 -0.12112747227472480        0.00000000    
   1.3039939892164830E-002 -0.11285416934153979        0.00000000    
   1.5871267036863625E-002  -9.7060008719892510E-002   0.00000000    
   2.2394089495264707E-002  -8.1989612800756687E-002   0.00000000    
   3.6296759868604131E-002  -7.1461781223914778E-002   0.00000000    
   4.9643841117923991E-002  -7.6041695646352478E-002   0.00000000    
   5.5562276146844260E-002  -8.6606102333382659E-002   0.00000000    
   7.2003323462033059E-002 -0.12891204477314613        0.00000000    
   7.7775400290172908E-002 -0.14058479155756445        0.00000000    
   6.6633326799508258E-002 -0.16919902188366981        0.00000000    
   5.4190281507740301E-002 -0.16532420417709795        0.00000000    
   5.0178038279901839E-002 -0.14809227042261511        0.00000000    
   4.9866144364804993E-002 -0.13002539463888993        0.00000000    
   4.5942290119592763E-002 -0.11286496311576993        0.00000000    
   3.6173413312463557E-002  -8.4646536595019653E-002   0.00000000    
   1.3843102646932332E-002  -2.1180750524805846E-002   0.00000000    
   6.8582487967728751E-003  0.10617903606679915        0.00000000    
   3.5605537773935145E-002  0.19751597943690177        0.00000000    
   6.6240590800174595E-002  0.25200657633131096        0.00000000    
   9.4950341246501410E-002  0.27727097970610060        0.00000000    
  0.10756317532829388       0.26764963219437787        0.00000000    
   9.3528100856989774E-002  0.24561144200153259        0.00000000    
   6.4988411956129241E-002  0.23062762790466459        0.00000000    
   3.3672173392100914E-002  0.22330855331590047        0.00000000    
   0.0000000000000000       0.21980536519768951        0.00000000    
   0.0000000000000000       0.27009392143777433        0.00000000    
  -2.1988671203390063E-002  0.27287840820674925        0.00000000    
  -3.9853180775755108E-002  0.28148825338416372        0.00000000    
  -4.9272868484971949E-002  0.29163594635835483        0.00000000    
  -4.7391646745360019E-002  0.29943526657323344        0.00000000    
  -3.0054291381845608E-002  0.29507235227259132        0.00000000    
  -1.4170819844874839E-003  0.26630268036705279        0.00000000    
   2.9340127302471816E-002  0.20667000622252657        0.00000000    
   5.0153500002544378E-002  0.11841342076080780        0.00000000    
   4.9419401737565892E-002   2.0140237357226948E-002   0.00000000    
   2.8184738669395248E-002  -5.7325547843971293E-002   0.00000000    
   9.2619712922592645E-003 -0.10554803059379160        0.00000000    
  -6.0822814343100455E-003 -0.14056942512225276        0.00000000    
  -1.8609478240985279E-002 -0.16237847674092445        0.00000000    
  -2.6537337425113453E-002 -0.17873873422032172        0.00000000    
  -3.4114949136648365E-002 -0.19180128842781544        0.00000000    
  -4.4555585607319877E-002 -0.19903133198011602        0.00000000    
  -5.6155387622112148E-002 -0.19291035997693104        0.00000000    
  -6.2416837400292871E-002 -0.17712713710821701        0.00000000    
  -6.4298107658834619E-002 -0.15720058714628363        0.00000000    
  -5.9682675376736556E-002 -0.13650053819260888        0.00000000    
  -4.8448598295909362E-002 -0.12192881880110945        0.00000000    
  -3.3889693762736296E-002 -0.11777078940561761        0.00000000    
  -1.9518285640250221E-002 -0.12483217878726570        0.00000000    
  -1.0438564504848176E-002 -0.13875526580971639        0.00000000    
  -6.4074383887275186E-003 -0.14475172152655658        0.00000000    
  -1.9171215757909986E-003 -0.13128814175704664        0.00000000    
   6.1183532953166661E-003 -0.11572110180847069        0.00000000    
   1.3024671187165399E-002 -0.10393072128961682        0.00000000    
   2.2719874506138344E-002  -9.1336926008511996E-002   0.00000000    
   3.3978897462213685E-002  -8.7276161345731768E-002   0.00000000    
   4.5665724650580712E-002  -8.5261223962318722E-002   0.00000000    
   6.4779380359852645E-002 -0.10241866475582385        0.00000000    
   6.4617756611478699E-002 -0.12937890591766490        0.00000000    
   6.0529001752857685E-002 -0.14180125238274544        0.00000000    
   5.6907555350188509E-002 -0.15321904116534038        0.00000000    
   4.3468590244166286E-002 -0.15542217449791521        0.00000000    
   3.2677228442418764E-002 -0.14319069507241980        0.00000000    
   2.3563959997991747E-002 -0.12550180762981891        0.00000000    
   1.2249916417960117E-002 -0.10215065229986826        0.00000000    
  -7.7884100289575342E-003  -6.5553644157290133E-002   0.00000000    
  -2.8799582799913938E-002   3.0678404733025032E-003   0.00000000    
  -2.9909248940507140E-002   9.0024965058402892E-002   0.00000000    
  -1.3799610843237211E-002  0.16881312336974158        0.00000000    
   1.1916453313250995E-002  0.22435831521452457        0.00000000    
   3.4154521760631024E-002  0.25397142192773436        0.00000000    
   4.7742154747154174E-002  0.26474872290290058        0.00000000    
   4.9050574404965727E-002  0.26123900610494211        0.00000000    
   3.8294032854278390E-002  0.25429629425123129        0.00000000    
   2.0225730025719185E-002  0.24902442836031444        0.00000000    
   0.0000000000000000       0.24798739356949320        0.00000000    
   0.0000000000000000       0.28650627398228001        0.00000000    
  -9.4752053868149937E-003  0.28792993225093172        0.00000000    
  -1.5495938411311040E-002  0.29032197193535209        0.00000000    
  -1.5373979953003993E-002  0.29209995705661951        0.00000000    
  -6.1003226362086578E-003  0.28781637681720262        0.00000000    
   1.1640361607757289E-002  0.27161320241983472        0.00000000    
   3.5487491336727107E-002  0.23727749109234750        0.00000000    
   5.8609215855656045E-002  0.18181626169026152        0.00000000    
   7.2320194417033884E-002  0.10874281403070113        0.00000000    
   7.0706694720101770E-002   3.2158442048486544E-002   0.00000000    
   5.8394295041102405E-002  -3.5796689788737047E-002   0.00000000    
   3.8627637104667531E-002  -8.8387463335941371E-002   0.00000000    
   2.0426670345705840E-002 -0.12418477289499757        0.00000000    
   4.8925516911655711E-003 -0.15070181350732823        0.00000000    
  -8.7494449644280672E-003 -0.16884554161449938        0.00000000    
  -2.1393475907882729E-002 -0.18147283837894884        0.00000000    
  -3.4169235346608699E-002 -0.18614338611983655        0.00000000    
  -4.5199736539825029E-002 -0.18316800262945584        0.00000000    
  -5.3330849632899711E-002 -0.17247693158464814        0.00000000    
  -5.5450471225878102E-002 -0.15784990081853612        0.00000000    
  -5.2006166287603704E-002 -0.14391096174090870        0.00000000    
  -4.3636664849428609E-002 -0.13412197377198631        0.00000000    
  -3.2119172066186280E-002 -0.13165403175132270        0.00000000    
  -2.1074991965765923E-002 -0.13636452466461796        0.00000000    
  -1.2619488947610681E-002 -0.14475814408610865        0.00000000    
  -8.2665870168761816E-003 -0.14713287129722091        0.00000000    
  -4.1660700032239446E-003 -0.13749782581317332        0.00000000    
   2.5676689135654455E-003 -0.12428063154040882        0.00000000    
   1.1431529790517899E-002 -0.11114137032663442        0.00000000    
   2.0659152320146746E-002 -0.10304910282027520        0.00000000    
   3.0629100356725870E-002  -9.6792955526778676E-002   0.00000000    
   4.3978375004340382E-002 -0.10078053161748074        0.00000000    
   4.9632244494289185E-002 -0.11166688230005853        0.00000000    
   5.3739838111805403E-002 -0.12407665824282550        0.00000000    
   4.9223107396789402E-002 -0.13849801448416671        0.00000000    
   3.9297341293142371E-002 -0.14297506655789466        0.00000000    
   2.8710039965236415E-002 -0.14163988267169739        0.00000000    
   1.4460651592974303E-002 -0.13193223672497453        0.00000000    
   5.8101245667923767E-005 -0.11324444718586732        0.00000000    
  -1.7178277808259132E-002  -8.5857590110307830E-002   0.00000000    
  -3.5995259358511451E-002  -4.2991398350216217E-002   0.00000000    
  -4.9504202652617721E-002   1.5025710730542636E-002   0.00000000    
  -5.3566991273438537E-002   8.3239549561706191E-002   0.00000000    
  -4.3294956317390977E-002  0.14921686581205393        0.00000000    
  -2.5882073852463723E-002  0.20082562614960695        0.00000000    
  -6.7035193809650015E-003  0.23608748807248842        0.00000000    
   7.6963896088734617E-003  0.25464511478039953        0.00000000    
   1.4980426507836937E-002  0.26275015766923165        0.00000000    
   1.4713367927591425E-002  0.26380874281640126        0.00000000    
   8.8389523221580925E-003  0.26345469822765066        0.00000000    
   0.0000000000000000       0.26262180604853325        0.00000000    
   0.0000000000000000       0.29215940277070873        0.00000000    
   1.1240641800446858E-004  0.29163960242992054        0.00000000    
   2.5479947384516445E-003  0.29019744645903289        0.00000000    
   9.6618745592508201E-003  0.28498864425250708        0.00000000    
   2.2008662229499598E-002  0.27330724463298223        0.00000000    
   3.9547571258287000E-002  0.25084274133012285        0.00000000    
   5.9017407450587013E-002  0.21473098625966142        0.00000000    
   7.6132980728354990E-002  0.16412546872525716        0.00000000    
   8.5415037895727672E-002  0.10344057126605284        0.00000000    
   8.5207184023433566E-002   3.9282038381566589E-002   0.00000000    
   7.4650251380913385E-002  -2.0050953800959535E-002   0.00000000    
   5.9219053221021369E-002  -6.8935343227979104E-002   0.00000000    
   4.1094478313104241E-002 -0.10731135133657044        0.00000000    
   2.3839079808169884E-002 -0.13478571790670579        0.00000000    
   7.7800656675562430E-003 -0.15506062641930682        0.00000000    
  -7.3035584476300501E-003 -0.16753009851583414        0.00000000    
  -2.0886703389899171E-002 -0.17372722160228685        0.00000000    
  -3.2643625704123741E-002 -0.17279674363984396        0.00000000    
  -4.0542760404018670E-002 -0.16681794278157167        0.00000000    
  -4.4197773801390526E-002 -0.15773425463150240        0.00000000    
  -4.2850389292204187E-002 -0.14881829737564567        0.00000000    
  -3.7488416780341677E-002 -0.14294611208750316        0.00000000    
  -3.0029623283391441E-002 -0.14180617971621287        0.00000000    
  -2.2015980744220523E-002 -0.14527019933953222        0.00000000    
  -1.6213310793780869E-002 -0.15011064237999880        0.00000000    
  -1.0349602222391625E-002 -0.15199698350573726        0.00000000    
  -3.4221083822898023E-003 -0.14366172445869405        0.00000000    
   2.7620355698809969E-003 -0.13103461576407041        0.00000000    
   9.5813595165140895E-003 -0.12007057092676002        0.00000000    
   1.7323373990921851E-002 -0.11108953922439217        0.00000000    
   2.6685600076218473E-002 -0.10808469324478528        0.00000000    
   3.3048714906309354E-002 -0.10920118337739568        0.00000000    
   3.9129290866052636E-002 -0.11498067599012311        0.00000000    
   3.8205055245399008E-002 -0.12394622254987195        0.00000000    
   3.3642778592336942E-002 -0.12954944280936878        0.00000000    
   2.4424494403524632E-002 -0.13277958794053041        0.00000000    
   1.1367232434493463E-002 -0.12819079799250568        0.00000000    
  -2.9527107787237481E-003 -0.11681198981905437        0.00000000    
  -1.9682436710255217E-002  -9.7232417813418445E-002   0.00000000    
  -3.7003481205846650E-002  -6.7312195933737565E-002   0.00000000    
  -5.2820747402234365E-002  -2.6902544780790582E-002   0.00000000    
  -6.4539277981090382E-002   2.4164331033356468E-002   0.00000000    
  -6.7242614749204843E-002   8.0867054646935471E-002   0.00000000    
  -6.1877907009728048E-002  0.13595261803031364        0.00000000    
  -4.8837292508730680E-002  0.18363637696430704        0.00000000    
  -3.3629009855366911E-002  0.21888990013172308        0.00000000    
  -1.9220025223490967E-002  0.24303380909817401        0.00000000    
  -8.7445844261610645E-003  0.25660198565383069        0.00000000    
  -2.5835577200846583E-003  0.26406294670460279        0.00000000    
  -2.6519377406255884E-004  0.26675654599746801        0.00000000    
   0.0000000000000000       0.26789371682540980        0.00000000    
   0.0000000000000000       0.28903544549018839        0.00000000    
   6.8140275586366598E-003  0.28783712573250575        0.00000000    
   1.5276019212387594E-002  0.28310234318097893        0.00000000    
   2.6306056460009310E-002  0.27393983046089071        0.00000000    
   4.0588173604229061E-002  0.25772715360894871        0.00000000    
   5.6818860855310932E-002  0.23265323607314456        0.00000000    
   7.3253595528681256E-002  0.19701592064992782        0.00000000    
   8.6283564650303013E-002  0.15169499193462055        0.00000000    
   9.3662808016892890E-002   9.9209747521850300E-002   0.00000000    
   9.2840877710918673E-002   4.4542646303248314E-002   0.00000000    
   8.5335793075756144E-002  -7.2495444456614428E-003   0.00000000    
   7.1812508863180260E-002  -5.2782270211424426E-002   0.00000000    
   5.5907205138071146E-002  -8.9434545720643091E-002   0.00000000    
   3.8826530099305236E-002 -0.11832644997942479        0.00000000    
   2.2232418522796265E-002 -0.13886676862989270        0.00000000    
   6.6869677960273259E-003 -0.15309488146370495        0.00000000    