 <VTKFile type="UnstructuredGrid" version="0.1" byte_order="BigEndian">
 <UnstructuredGrid>
 <Piece NumberOfPoints="        2601 " NumberOfCells="        2500 ">
 <PointData Scalars="scalars">
 <DataArray type="Float32" NumberOfComponents="3" Name="Velocity" Format="ascii">
   0.0000000000000000        0.0000000000000000        0.00000000    
  -8.8669778392260937E-002   0.0000000000000000        0.00000000    
 -0.17809776250200435        0.0000000000000000        0.00000000    
 -0.26911599749697140        0.0000000000000000        0.00000000    
 -0.36252073349153474        0.0000000000000000        0.00000000    
 -0.45936438734442314        0.0000000000000000        0.00000000    
 -0.56059598770192509        0.0000000000000000        0.00000000    
 -0.66776273824734789        0.0000000000000000        0.00000000    
 -0.78209049835111544        0.0000000000000000        0.00000000    
 -0.90641929170438307        0.0000000000000000        0.00000000    
  -1.0421630918126625        0.0000000000000000        0.00000000    
  -1.1979942994354544        0.0000000000000000        0.00000000    
  -1.3703034165631105        0.0000000000000000        0.00000000    
  -1.6807981417443587        0.0000000000000000        0.00000000    
  -2.1696546435629140        0.0000000000000000        0.00000000    
  -8.0481049705142791        0.0000000000000000        0.00000000    
  -8.7664405280015849        0.0000000000000000        0.00000000    
  -8.2323585318813279        0.0000000000000000        0.00000000    
  -8.7462656184321474        0.0000000000000000        0.00000000    
  -1.3644637158262440        0.0000000000000000        0.00000000    
 -0.99724025430665486        0.0000000000000000        0.00000000    
  -3.3074453464513804        0.0000000000000000        0.00000000    
  -2.3643593334307536        0.0000000000000000        0.00000000    
  -7.2884201502512802        0.0000000000000000        0.00000000    
  -6.2576248066615650        0.0000000000000000        0.00000000    
  -3.9269870147060719        0.0000000000000000        0.00000000    
   1.9360545282822534        0.0000000000000000        0.00000000    
   10.958620277169699        0.0000000000000000        0.00000000    
   14.681175117382882        0.0000000000000000        0.00000000    
   15.706352322872602        0.0000000000000000        0.00000000    
   10.236200889593977        0.0000000000000000        0.00000000    
   6.6722767759304098        0.0000000000000000        0.00000000    
   15.675109745876540        0.0000000000000000        0.00000000    
   18.255015620995557        0.0000000000000000        0.00000000    
   7.2189381939931314        0.0000000000000000        0.00000000    
   3.2509697807186719        0.0000000000000000        0.00000000    
   2.1726810951035622        0.0000000000000000        0.00000000    
   1.6238567812276319        0.0000000000000000        0.00000000    
   1.3697649852730054        0.0000000000000000        0.00000000    
   1.2047180608313546        0.0000000000000000        0.00000000    
   1.0536494015473759        0.0000000000000000        0.00000000    
  0.91796359973024821        0.0000000000000000        0.00000000    
  0.79308624608384293        0.0000000000000000        0.00000000    
  0.67734276316845499        0.0000000000000000        0.00000000    
  0.56884692943160564        0.0000000000000000        0.00000000    
  0.46607606860946288        0.0000000000000000        0.00000000    
  0.36786743775454023        0.0000000000000000        0.00000000    
  0.27303386401997809        0.0000000000000000        0.00000000    
  0.18070946708029448        0.0000000000000000        0.00000000    
   8.9954477313792247E-002   0.0000000000000000        0.00000000    
   0.0000000000000000        0.0000000000000000        0.00000000    
   0.0000000000000000        8.7865154872402512E-002   0.00000000    
  -8.7435223624799593E-002   8.8239847142202635E-002   0.00000000    
 -0.17560264893757807        8.9355562277859013E-002   0.00000000    
 -0.26521627938875847        9.1276303165818612E-002   0.00000000    
 -0.35713170006541262        9.4043853502913083E-002   0.00000000    
 -0.45213809870551624        9.7806198987571646E-002   0.00000000    
 -0.55137381342040526       0.10266111608228190        0.00000000    
 -0.65580403345587934       0.10893585449603785        0.00000000    
 -0.76719440028273256       0.11678227243195199        0.00000000    
 -0.88678087240443548       0.12713299304031320        0.00000000    
  -1.0181789849513929       0.14000891961211451        0.00000000    
  -1.1627441374660905       0.16038744052239431        0.00000000    
  -1.3357931114334405       0.18497065056938911        0.00000000    
  -1.5263479322529478       0.31607889542726730        0.00000000    
  -1.7112365379668442       0.35766621209862193        0.00000000    
  0.65054729838381853        3.1590002785828353        0.00000000    
  -7.8515507379795846        6.0614333154117901        0.00000000    
  -10.465166728167778       -3.9818993211946840        0.00000000    
 -0.59114985287182931       -5.3782104673976638        0.00000000    
  -2.7781833858468499       0.18344209790712082        0.00000000    
  -1.5919173489460750       -1.7369315961780436        0.00000000    
  0.59586151680767618        1.8593578227116996        0.00000000    
  -4.9855792652116397        2.7789969464323847        0.00000000    
  -4.3667977841251755        1.5262823894466349        0.00000000    
  -7.4548680849974636       0.53099256797764893        0.00000000    
  -5.3148380420931307       -5.0016604026911891        0.00000000    
   1.7753272745356365       -7.9515464567895648        0.00000000    
   8.9424343381012790       -8.2381263555154973        0.00000000    
   16.483892503750820       -3.0258866502195185        0.00000000    
   14.305139257502910        4.1794626911286388        0.00000000    
   9.1002081551310123        6.4956198446404976        0.00000000    
   2.7982349281140673        3.3702774961940114        0.00000000    
   1.6821949047049167       -11.257070442616392        0.00000000    
   18.226814161182784       -7.8674546888239432        0.00000000    
   17.647789161520922        19.482557115618896        0.00000000    
   1.5335416831799329       0.59965877614399454        0.00000000    
   1.6227398105278934       0.38943178211379081        0.00000000    
   1.5196486936123941       0.26248364867087876        0.00000000    
   1.3369272848375071       0.17432955605481465        0.00000000    
   1.1724960043014432       0.15514864891973559        0.00000000    
   1.0292414940946673       0.13917452056810448        0.00000000    
  0.89817810687144739       0.12757466846945914        0.00000000    
  0.77753389185558774       0.11794690019012509        0.00000000    
  0.66504211235375510       0.11028836222447309        0.00000000    
  0.55915140627396487       0.10409817758960047        0.00000000    
  0.45861537109699030        9.9208718406982990E-002   0.00000000    
  0.36219324362375177        9.5422039918676274E-002   0.00000000    
  0.26900818346082328        9.2596593976331229E-002   0.00000000    
  0.17808207249852698        9.0653913923181381E-002   0.00000000    
   8.8680727276420263E-002   8.9502421062968407E-002   0.00000000    
   0.0000000000000000        8.9132783524790093E-002   0.00000000    
   0.0000000000000000       0.17334322589592716        0.00000000    
  -8.3830334790156183E-002  0.17402733453117469        0.00000000    
 -0.16823773261440703       0.17614289802345304        0.00000000    
 -0.25384913206567722       0.17971399732020185        0.00000000    
 -0.34124306210861871       0.18491551006563839        0.00000000    
 -0.43116014068911590       0.19185801964293808        0.00000000    
 -0.52422242179212220       0.20090729124227613        0.00000000    
 -0.62137000005845855       0.21226747763528001        0.00000000    
 -0.72330239820966102       0.22677341426814560        0.00000000    
 -0.83126214220591343       0.24468806731938911        0.00000000    
 -0.94618991122642004       0.26877972689772522        0.00000000    
  -1.0690334624940865       0.29902533701626849        0.00000000    
  -1.2043087009767905       0.35465696652243611        0.00000000    
  -1.3032562715081022       0.43589497082209455        0.00000000    
  -1.3459148688952429       0.46539733980200615        0.00000000    
  -1.2336298750898749       0.57720032071846750        0.00000000    
   7.0776054127345072        8.8340960219887634        0.00000000    
   9.2214727621159209       -6.2848133868067642        0.00000000    
  -5.2415929554406953        1.5137524406016576        0.00000000    
 -0.73175736600749663       -9.0313228663874217        0.00000000    
   3.8122959198478119        1.7475140454934097        0.00000000    
  -2.3516558328089201        2.3510850680949700        0.00000000    
   1.3089503080698275        4.2081043423323861        0.00000000    
  -5.4531951115402606        6.2405389322127647        0.00000000    
  -5.5519203600304259      -0.99646842527625712        0.00000000    
  -5.9535224194451217       -5.2126273927936690        0.00000000    
  -4.8747397844688507       -15.909527418134825        0.00000000    
   7.0113236607653375       -19.333315902852359        0.00000000    
   15.923870690043918       -8.3847022976399348        0.00000000    
   16.423443813692760        11.217458461242053        0.00000000    
   1.1223873515854774        19.963611639193001        0.00000000    
  -8.0645210122563444        5.3911672925757035        0.00000000    
  -13.324404962583884       -6.9020362650653055        0.00000000    
  -13.536640519669273       -28.554872565694748        0.00000000    
  -3.5868478962068520        30.799207368873141        0.00000000    
   1.3858620471564578       0.42454605801291512        0.00000000    
   1.4268494882470153       0.43435893180508028        0.00000000    
   1.3410857476770135       0.40641135646278920        0.00000000    
   1.2176475060643728       0.33656149864737517        0.00000000    
   1.0809827629329822       0.29401272999163508        0.00000000    
  0.95691084325052023       0.26763686938256331        0.00000000    
  0.84105490090266322       0.24603164922334775        0.00000000    
  0.73224559251235710       0.22894344283971774        0.00000000    
  0.62914649508969056       0.21488269649677960        0.00000000    
  0.53096371189588609       0.20357733258831442        0.00000000    
  0.43668463327442492       0.19454467720417970        0.00000000    
  0.34568662165959468       0.18750622020703878        0.00000000    
  0.25712261144859866       0.18226148405941234        0.00000000    
  0.17043395665298502       0.17860378959553677        0.00000000    
   8.4912327936095183E-002  0.17647551932714867        0.00000000    
   0.0000000000000000       0.17575274047066691        0.00000000    
   0.0000000000000000       0.25415749219591244        0.00000000    
  -7.8062888135044056E-002  0.25510629115393169        0.00000000    
 -0.15651291040390414       0.25792136149134426        0.00000000    
 -0.23570724913620536       0.26274127203341202        0.00000000    
 -0.31605184157787747       0.26962675783455686        0.00000000    
 -0.39785397981352649       0.27886598868766505        0.00000000    
 -0.48149712420926366       0.29060474769376476        0.00000000    
 -0.56717765717886159       0.30539813241717018        0.00000000    
 -0.65505906350756138       0.32345656396355904        0.00000000    
 -0.74510197724963623       0.34600757535965876        0.00000000    
 -0.83604684401522744       0.37333285464084826        0.00000000    
 -0.92771032019595778       0.40897923671876329        0.00000000    
  -1.0033855472185587       0.45565353232246231        0.00000000    
  -1.0513855745781482       0.48184600291029728        0.00000000    
  -1.0864988189373874       0.49721814945728604        0.00000000    
  -1.0720175372586069       0.41861323557765262        0.00000000    
 -0.82515133252296813       0.43458161456893213        0.00000000    
  -18.164086855506824        17.309769194319525        0.00000000    
 -0.60309131175798580       -25.178759966532869        0.00000000    
   11.908681987013065       0.63958065265802744        0.00000000    
  -5.0206176713221913        4.4618568990922718        0.00000000    
  0.37322512675300640       0.40685116921126629        0.00000000    
   1.1922575730528326        1.6726996541861037        0.00000000    
   7.5529580203739890        9.1773885927964933        0.00000000    
  -6.0245867433246065        9.7429519264640803        0.00000000    
  -7.0812996672957134       -14.493732760989431        0.00000000    
   2.2591727159076180       -17.047677067998883        0.00000000    
  -9.2699313619231756       -18.552125620215232        0.00000000    
 -0.86633707970717644       -26.482033891685191        0.00000000    
   20.884741419405337        7.0641384327339267        0.00000000    
   6.3732581330643763        53.929471416192243        0.00000000    
  -38.158339454812904        25.143813467529920        0.00000000    
  -18.792255545422194       -40.760882399057166        0.00000000    
  -2.1527328448920402       -11.123313574908885        0.00000000    
  -11.785834029246269        13.050956939001830        0.00000000    
   1.0909523697140304       0.32330014556193731        0.00000000    
   1.1103978512251251       0.47517192165301542        0.00000000    
   1.0820672356212646       0.47969272278595443        0.00000000    
   1.0222019047794293       0.44658370477615661        0.00000000    
  0.93740227528743092       0.40545489648339772        0.00000000    
  0.84412320843430444       0.37354568942367383        0.00000000    
  0.75209470460823225       0.34800727535344556        0.00000000    
  0.66133110793930716       0.32654072176623666        0.00000000    
  0.57286798325507271       0.30884763967455514        0.00000000    
  0.48640207992766804       0.29426107592920814        0.00000000    
  0.40206277676289015       0.28247931564699236        0.00000000    
  0.31940227999079929       0.27323009014865490        0.00000000    
  0.23827171202731565       0.26623219228978928        0.00000000    
  0.15820435645254807       0.26138909173307528        0.00000000    
   7.8922038512069956E-002  0.25849416384451468        0.00000000    
   0.0000000000000000       0.25756846239900949        0.00000000    
   0.0000000000000000       0.32838860778446610        0.00000000    
  -7.0497934429312237E-002  0.32943599812728108        0.00000000    
 -0.14112269803329572       0.33266644038838233        0.00000000    
 -0.21199990461719764       0.33806773845011223        0.00000000    
 -0.28317799438551827       0.34582297362537606        0.00000000    
 -0.35467747627478902       0.35597139301927389        0.00000000    
 -0.42634823552873174       0.36881324700932933        0.00000000    
 -0.49786118452334144       0.38438311506327638        0.00000000    
 -0.56861855969464636       0.40311036281489987        0.00000000    
 -0.63712108073843066       0.42489921129157804        0.00000000    
 -0.70168363412997448       0.44994863886344383        0.00000000    
 -0.75569814715471073       0.47804144169898144        0.00000000    
 -0.79184848485024117       0.49841689205778794        0.00000000    
 -0.81082750452388119       0.50606169020554570        0.00000000    
 -0.78596837573405876       0.48325657772931030        0.00000000    
 -0.72551777819225527       0.35764292808290810        0.00000000    
 -0.64204667339612775       0.16521461253054812        0.00000000    
   16.905560130523419        17.370464915648096        0.00000000    
   4.0493904246562300       -29.944281525655420        0.00000000    
  -13.020264198054136        9.9629835359036321        0.00000000    
 -0.36845945587833895      -0.58405106787959504        0.00000000    
 -0.47443182592539618       0.16488870831546401        0.00000000    
  0.78089078948734614      -0.15969294648790180        0.00000000    
   3.8864687584559783        1.5435027773219396        0.00000000    
   21.023532169277658        13.817319094972561        0.00000000    
   20.193369542162689       -16.681224378286068        0.00000000    
  0.74940777088717769       -4.7566960624592030        0.00000000    
  -10.486449397789176       -8.0781453791467097        0.00000000    
  -36.426240329579315       -19.419817482971130        0.00000000    
  -57.057277425827763       -1.1181193788119184        0.00000000    
  -21.686761614858913        41.252696703376216        0.00000000    
   42.397901015056490        18.267523138277177        0.00000000    
   28.979437580806970       -39.832212544654197        0.00000000    
  -5.3010487572000029        5.5889802081487057        0.00000000    
  0.56965942936032665       0.10105615401697164        0.00000000    
  0.70083307012509533       0.26524089078787366        0.00000000    
  0.76601647368328740       0.44860229135472696        0.00000000    
  0.80326325597150527       0.49734618639761008        0.00000000    
  0.79514028543693971       0.49691854253816281        0.00000000    
  0.75887876675709554       0.47618120689068572        0.00000000    
  0.70424926773069052       0.45072794489321305        0.00000000    
  0.63984704128682535       0.42725575015125689        0.00000000    
  0.57150364475413518       0.40639924016741907        0.00000000    
  0.50068631683200171       0.38826957387720262        0.00000000    
  0.42910222351395638       0.37288913836946191        0.00000000    
  0.35709436994898353       0.36019840993399460        0.00000000    
  0.28526608900406752       0.34999977357616069        0.00000000    
  0.21359072315616801       0.34226844267120049        0.00000000    
  0.14223231116665375       0.33677860891347777        0.00000000    
   7.1049066874135869E-002  0.33357020889465494        0.00000000    
   0.0000000000000000       0.33246352273262159        0.00000000    
   0.0000000000000000       0.39439809102693696        0.00000000    
  -6.1559965311676727E-002  0.39548441462335460        0.00000000    
 -0.12299274455554680       0.39867556673771437        0.00000000    
 -0.18412766582124912       0.40407073994793252        0.00000000    
 -0.24473864749471608       0.41160904356687972        0.00000000    
 -0.30445952434383300       0.42140568181368682        0.00000000    
 -0.36273796477707365       0.43332815789960871        0.00000000    
 -0.41875888724546373       0.44740207563349615        0.00000000    
 -0.47112739960954858       0.46321728977754151        0.00000000    
 -0.51801987492258039       0.48018728068321992        0.00000000    
 -0.55584651193051537       0.49704975986871741        0.00000000    
 -0.57990503143253669       0.50901335321794061        0.00000000    
 -0.58690375907081815       0.51059404587007939        0.00000000    
 -0.56557641082464449       0.49153620781835083        0.00000000    
 -0.51449785275265891       0.42184437325231355        0.00000000    
 -0.44665182020429911       0.29075850246759527        0.00000000    
 -0.35710294950644300        5.9079062649970426E-002   0.00000000    
 -0.22290973298985609      -0.20519955491219050        0.00000000    
  0.33198053064855282       -6.7337612665463675E-002   0.00000000    
 -0.47930532759137057       -2.0330198960737835        0.00000000    
  -1.3244891898787241      -0.39466851567613503        0.00000000    
 -0.61349849811832724      -0.62951216546947997        0.00000000    
 -0.29885835535640132      -0.93525483078171812        0.00000000    
 -0.17276718582325992      -0.91260447674654155        0.00000000    
  -5.9042339184915832E-002 -0.97736190834005154        0.00000000    
  -4.4108960383540820E-002  -1.0713141264992998        0.00000000    
   4.2140858368620261E-003 -0.97096758907305347        0.00000000    
  0.22268571795114844      -0.84648831577978056        0.00000000    
  0.42074809872409391      -0.90974599524325839        0.00000000    
   1.3979234234973508        2.5670905196088275E-002   0.00000000    
   4.6778227735632258        1.4584912582909675        0.00000000    
   3.2243547100465619       -4.5694659829235293        0.00000000    
 -0.17743684016401629      -0.17496843908925194        0.00000000    
  0.28273088380517414      -0.24794528303837435        0.00000000    
  0.36839761698241758       -1.8393274535411942E-002   0.00000000    
  0.41287809561643884       0.20903619993920330        0.00000000    
  0.47794767386186759       0.37455400039697678        0.00000000    
  0.54231569354852693       0.46977967537777970        0.00000000    
  0.57257222579915590       0.50235149183949157        0.00000000    
  0.57323996478262274       0.50634203728309002        0.00000000    
  0.55182129388370083       0.49661528442362701        0.00000000    
  0.51585517624957211       0.48173675469623145        0.00000000    
  0.47007918897019652       0.46603761943199729        0.00000000    
  0.41858662590267082       0.45094108559973273        0.00000000    
  0.36299030217446304       0.43739804369069890        0.00000000    
  0.30502871562999262       0.42565894471969673        0.00000000    
  0.24533788800772802       0.41605834735517705        0.00000000    
  0.18471191828211697       0.40851120446322459        0.00000000    
  0.12340802815247560       0.40319814923816183        0.00000000    
   6.1791634151128753E-002  0.39995030686138427        0.00000000    
   0.0000000000000000       0.39892412578871322        0.00000000    
   0.0000000000000000       0.45112561393249873        0.00000000    
  -5.1735654100266822E-002  0.45205251112730288        0.00000000    
 -0.10309642307041000       0.45490101844534447        0.00000000    
 -0.15366820043943730       0.45955198687259097        0.00000000    
 -0.20294220183800868       0.46601277971181559        0.00000000    
 -0.25026140267467362       0.47404202335207624        0.00000000    
 -0.29476089597276522       0.48346975009009113        0.00000000    
 -0.33520519391944470       0.49372570385560399        0.00000000    
 -0.36999111514896932       0.50404809514656612        0.00000000    
 -0.39671976205914994       0.51297759753490779        0.00000000    
 -0.41225739930351935       0.51762371726685752        0.00000000    
 -0.41344607922741872       0.51368659524322069        0.00000000    
 -0.39488318155555163       0.49435663380879630        0.00000000    
 -0.35411765146040869       0.44568074153588239        0.00000000    
 -0.29384269638920540       0.35634632638926067        0.00000000    
 -0.21382891633294049       0.20839673672371720        0.00000000    
 -0.14118793755284717       -2.0749021086848424E-002   0.00000000    
 -0.11067884009802119      -0.29007378515029553        0.00000000    
 -0.10632223700637559      -0.54171024916125810        0.00000000    
 -0.11084761268837995      -0.74283602566034246        0.00000000    
 -0.11091385800639043      -0.83960227935414233        0.00000000    
  -9.4016977188435102E-002 -0.91246597436967181        0.00000000    
  -7.7977565307968968E-002 -0.98298057653065463        0.00000000    
  -6.4295124144201493E-002  -1.0046523416983433        0.00000000    
  -3.4075763542693975E-002  -1.0292582506282075        0.00000000    
   6.7033076755195218E-003  -1.0751302342329805        0.00000000    
   3.8794254930553773E-002  -1.0475654748159411        0.00000000    
   5.9485910247217069E-002  -1.0090537174683705        0.00000000    
   7.7706120779917259E-002 -0.96346318486092863        0.00000000    
   9.7607433799774074E-002 -0.91768854298084657        0.00000000    
  0.10527858643611598      -0.88571979623059960        0.00000000    
  0.10318184638568956      -0.76969013129172603        0.00000000    
  0.10427526472546268      -0.57404615884987276        0.00000000    
  0.10887954499892037      -0.31363956752486949        0.00000000    
  0.13567344277978471       -6.5159621009181587E-002   0.00000000    
  0.19955914866841951       0.14743636188800641        0.00000000    
  0.26627243921221222       0.30437096965651561        0.00000000    
  0.32628586643089341       0.41558125921040928        0.00000000    
  0.37463882733267101       0.47794041485188288        0.00000000    
  0.39873744905659314       0.50598675356087341        0.00000000    
  0.40264890080037402       0.51447778729842175        0.00000000    
  0.38988487016814161       0.51260440008533448        0.00000000    
  0.36538230959376927       0.50544852189410694        0.00000000    
  0.33200540603645423       0.49639964976000150        0.00000000    
  0.29270420704446359       0.48683700224812892        0.00000000    
  0.24890113629775451       0.47798464345099728        0.00000000    
  0.20214320630474458       0.47018140623668209        0.00000000    
  0.15317784238873791       0.46397947922090071        0.00000000    
  0.10285191282595786       0.45935969417045985        0.00000000    
   5.1622418938753065E-002  0.45663464981520557        0.00000000    
   0.0000000000000000       0.45565383592233810        0.00000000    
   0.0000000000000000       0.49783985856675717        0.00000000    
  -4.1499909541433060E-002  0.49857383013232459        0.00000000    
  -8.2422844494852696E-002  0.50066340336146364        0.00000000    
 -0.12214749280175345       0.50408602762997745        0.00000000    
 -0.15995626931699855       0.50856151686581597        0.00000000    
 -0.19499251959198885       0.51384873730730096        0.00000000    
 -0.22616585434413383       0.51933586418266076        0.00000000    
 -0.25213332678624745       0.52427136014938891        0.00000000    
 -0.27113377094720043       0.52728880424080504        0.00000000    
 -0.28099379851759793       0.52632556291880961        0.00000000    
 -0.27933134989147979       0.51815094049875299        0.00000000    
 -0.26312728825696036       0.49814399029829570        0.00000000    
 -0.23036643861738323       0.45857549143985288        0.00000000    
 -0.18103760598351154       0.39136752117344770        0.00000000    
 -0.11605651721100763       0.28540350290561800        0.00000000    
  -4.6163163570559655E-002  0.12943242650819667        0.00000000    
   1.2147749330294099E-002  -7.2736602554839477E-002   0.00000000    
   4.7237334641394207E-002 -0.30368488645091773        0.00000000    
   4.9034440237898005E-002 -0.53425285655135313        0.00000000    
   2.0720571143277560E-002 -0.71745417349492102        0.00000000    
  -7.2420972341594239E-003 -0.83695521782576476        0.00000000    
  -1.8183899840697095E-002 -0.92106811411022460        0.00000000    
  -2.5793519990594118E-002 -0.98280822852146643        0.00000000    
  -2.3454698787177784E-002  -1.0208459520754196        0.00000000    
  -7.4548579464207313E-003  -1.0592838416938151        0.00000000    
   3.3140343255412220E-003  -1.0966526066600588        0.00000000    
   8.0633042090285188E-003  -1.0628833195282601        0.00000000    
   1.6178352051229160E-002  -1.0225425759154809        0.00000000    
   2.4020881002692427E-002 -0.97603706589869987        0.00000000    
   2.6446355277646254E-002 -0.92744144923858152        0.00000000    
   1.0148324316476994E-002 -0.86734001164932861        0.00000000    
  -2.4730122315658111E-002 -0.75109472919151044        0.00000000    
  -5.4691264711896899E-002 -0.56377383689506866        0.00000000    
  -5.1049587365027960E-002 -0.33215784710291246        0.00000000    
  -1.3094539386171014E-002 -0.11139028719325876        0.00000000    
   3.5421684808090562E-002   8.1265097986852081E-002   0.00000000    
   9.7521345262086251E-002  0.24172928255754844        0.00000000    
  0.15842674594100739       0.35730411840933068        0.00000000    
  0.20889296148029546       0.43739837920950181        0.00000000    
  0.24602189961869478       0.48530122933843289        0.00000000    
  0.26583362537382543       0.51144013401954413        0.00000000    
  0.27100290381583941       0.52323680555193053        0.00000000    
  0.26350958096854554       0.52681199984675375        0.00000000    
  0.24653634923504092       0.52538630709569145        0.00000000    
  0.22198461170338141       0.52170328143366329        0.00000000    
  0.19200756584609144       0.51689848086700152        0.00000000    
  0.15781291512188630       0.51222014953547157        0.00000000    
  0.12072326341329787       0.50799575154426613        0.00000000    
   8.1529033097271497E-002  0.50486358172348278        0.00000000    
   4.1082647751965393E-002  0.50280664149226673        0.00000000    
   0.0000000000000000       0.50218691093357604        0.00000000    
   0.0000000000000000       0.53441722375110801        0.00000000    
  -3.1295393006033019E-002  0.53479176749303459        0.00000000    
  -6.1867981762544398E-002  0.53594098970827975        0.00000000    
  -9.0951426568662189E-002  0.53761653439377111        0.00000000    
 -0.11770381940722106       0.53959217945341842        0.00000000    
 -0.14114478537936404       0.54129529096441720        0.00000000    
 -0.16014319117686490       0.54206105107278035        0.00000000    
 -0.17333531341822661       0.54070576794032499        0.00000000    
 -0.17914642238482109       0.53566594957500935        0.00000000    
 -0.17584506264687047       0.52450708541463487        0.00000000    
 -0.16154781571369234       0.50400972244124242        0.00000000    
 -0.13478816244968050       0.46932149345487661        0.00000000    
  -9.5101220873097192E-002  0.41495019706475622        0.00000000    
  -4.3193347959037759E-002  0.33375610999825139        0.00000000    
   1.5941395582138508E-002  0.21889908176478562        0.00000000    
   7.4188355671796949E-002   6.7796533916546289E-002   0.00000000    