 <VTKFile type="UnstructuredGrid" version="0.1" byte_order="BigEndian">
 <UnstructuredGrid>
 <Piece NumberOfPoints="        2601 " NumberOfCells="        2500 ">
 <PointData Scalars="scalars">
 <DataArray type="Float32" NumberOfComponents="3" Name="Velocity" Format="ascii">
   0.0000000000000000        0.0000000000000000        0.00000000    
  -5.4447734504840493E-002   0.0000000000000000        0.00000000    
 -0.10810956146424973        0.0000000000000000        0.00000000    
 -0.16032385607017016        0.0000000000000000        0.00000000    
 -0.21020196464543559        0.0000000000000000        0.00000000    
 -0.25722731766810530        0.0000000000000000        0.00000000    
 -0.30043525663292814        0.0000000000000000        0.00000000    
 -0.33947834393839704        0.0000000000000000        0.00000000    
 -0.37335161275886153        0.0000000000000000        0.00000000    
 -0.40190676376220558        0.0000000000000000        0.00000000    
 -0.42414504791172608        0.0000000000000000        0.00000000    
 -0.44015324387344112        0.0000000000000000        0.00000000    
 -0.44899490858748742        0.0000000000000000        0.00000000    
 -0.45103007349056667        0.0000000000000000        0.00000000    
 -0.44544489801633791        0.0000000000000000        0.00000000    
 -0.43290528546239920        0.0000000000000000        0.00000000    
 -0.41277517312948914        0.0000000000000000        0.00000000    
 -0.38604261791211464        0.0000000000000000        0.00000000    
 -0.35228800816318068        0.0000000000000000        0.00000000    
 -0.31281073112363889        0.0000000000000000        0.00000000    
 -0.26741994703215521        0.0000000000000000        0.00000000    
 -0.21768177989811346        0.0000000000000000        0.00000000    
 -0.16361567532169893        0.0000000000000000        0.00000000    
 -0.10697665459876340        0.0000000000000000        0.00000000    
  -4.7947956434703856E-002   0.0000000000000000        0.00000000    
   1.1629709817407791E-002   0.0000000000000000        0.00000000    
   7.1475024149315086E-002   0.0000000000000000        0.00000000    
  0.12977765699677193        0.0000000000000000        0.00000000    
  0.18623171432149666        0.0000000000000000        0.00000000    
  0.23917235260847186        0.0000000000000000        0.00000000    
  0.28833934681686818        0.0000000000000000        0.00000000    
  0.33231427941627717        0.0000000000000000        0.00000000    
  0.37094031843411873        0.0000000000000000        0.00000000    
  0.40312051291781470        0.0000000000000000        0.00000000    
  0.42883989816951879        0.0000000000000000        0.00000000    
  0.44736339201428293        0.0000000000000000        0.00000000    
  0.45883401960600712        0.0000000000000000        0.00000000    
  0.46288109062717070        0.0000000000000000        0.00000000    
  0.45980095574416835        0.0000000000000000        0.00000000    
  0.44955588815759162        0.0000000000000000        0.00000000    
  0.43257592444779952        0.0000000000000000        0.00000000    
  0.40910103447974605        0.0000000000000000        0.00000000    
  0.37966819067267399        0.0000000000000000        0.00000000    
  0.34472882733761545        0.0000000000000000        0.00000000    
  0.30490002020775142        0.0000000000000000        0.00000000    
  0.26077923518466994        0.0000000000000000        0.00000000    
  0.21304090637319148        0.0000000000000000        0.00000000    
  0.16237196264639547        0.0000000000000000        0.00000000    
  0.10948628796025137        0.0000000000000000        0.00000000    
   5.5116243028130847E-002   0.0000000000000000        0.00000000    
   0.0000000000000000        0.0000000000000000        0.00000000    
   0.0000000000000000        5.4702697867833029E-002   0.00000000    
  -5.4593945877165706E-002   5.4338982515506298E-002   0.00000000    
 -0.10846180548461734        5.3190704052640869E-002   0.00000000    
 -0.16076323166517598        5.1325016735218117E-002   0.00000000    
 -0.21090645763945409        4.8696317815565007E-002   0.00000000    
 -0.25795994297105357        4.5382520540130464E-002   0.00000000    
 -0.30148775637015535        4.1353231824987749E-002   0.00000000    
 -0.34049756639047168        3.6699665502269871E-002   0.00000000    
 -0.37473583841703245        3.1411875345903693E-002   0.00000000    
 -0.40319028117522732        2.5597718417152627E-002   0.00000000    
 -0.42582295329840530        1.9273237856650090E-002   0.00000000    
 -0.44165346507294323        1.2565469881163869E-002   0.00000000    
 -0.45089768716305895        5.5204169240602096E-003   0.00000000    
 -0.45266688938582950       -1.7160497966080257E-003   0.00000000    
 -0.44746825180334998       -9.0677632590775194E-003   0.00000000    
 -0.43456486122316446       -1.6375239873406132E-002   0.00000000    
 -0.41478227521647143       -2.3537458465209889E-002   0.00000000    
 -0.38758497731833563       -3.0392394648625844E-002   0.00000000    
 -0.35412189700614266       -3.6825295411545091E-002   0.00000000    
 -0.31408634678202846       -4.2687531850407814E-002   0.00000000    
 -0.26892386749376418       -4.7865731528409131E-002   0.00000000    
 -0.21855392792613754       -5.2242375171534315E-002   0.00000000    
 -0.16465660307842445       -5.5721054251680426E-002   0.00000000    
 -0.10734377534840954       -5.8230794199530665E-002   0.00000000    
  -4.8437172913179026E-002  -5.9704506398857458E-002   0.00000000    
   1.1817331060184864E-002  -6.0127663824872654E-002   0.00000000    
   7.1569037140247455E-002  -5.9469356586197515E-002   0.00000000    
  0.13051023954973237       -5.7774478669001504E-002   0.00000000    
  0.18687992450506485       -5.5049263610150417E-002   0.00000000    
  0.24038266733782615       -5.1394117507855296E-002   0.00000000    
  0.28945799938250671       -4.6848208744302365E-002   0.00000000    
  0.33388848455989950       -4.1557209030787454E-002   0.00000000    
  0.37240457275455718       -3.5584918180771224E-002   0.00000000    
  0.40491593056545039       -2.9106634112131966E-002   0.00000000    
  0.43050304705767223       -2.2199867630825980E-002   0.00000000    
  0.44923001047167360       -1.5050589626285995E-002   0.00000000    
  0.46054863240228611       -7.7386598950495052E-003   0.00000000    
  0.46468210332288057       -4.4188204509166938E-004   0.00000000    
  0.46143725274482156        6.7668675071913924E-003   0.00000000    
  0.45118248448252385        1.3732968343259907E-002   0.00000000    
  0.43403339585404066        2.0396083996094178E-002   0.00000000    
  0.41047866339273670        2.6633538434797724E-002   0.00000000    
  0.38087891728961559        3.2399051476516921E-002   0.00000000    
  0.34581515263442825        3.7604076515218854E-002   0.00000000    
  0.30582492104149084        4.2214962208748839E-002   0.00000000    
  0.26155640751880682        4.6174336338460804E-002   0.00000000    
  0.21366184584731354        4.9458554145722804E-002   0.00000000    
  0.16283668198119530        5.2035553448589816E-002   0.00000000    
  0.10979727046777740        5.3889532752230254E-002   0.00000000    
   5.5270668663731967E-002   5.5007113985286987E-002   0.00000000    
   0.0000000000000000        5.5379797707880478E-002   0.00000000    
   0.0000000000000000       0.10975602225602567        0.00000000    
  -5.5089440723322843E-002  0.10896904472908017        0.00000000    
 -0.10939351839807548       0.10673257912268978        0.00000000    
 -0.16225153043388066       0.10294257988267071        0.00000000    
 -0.21277279432888674        9.7743244538955235E-002   0.00000000    
 -0.26043998005490981        9.1056264875360796E-002   0.00000000    
 -0.30428182023459582        8.3049141070242721E-002   0.00000000    
 -0.34394685446733797        7.3678600510934070E-002   0.00000000    
 -0.37841753066236322        6.3141888560659526E-002   0.00000000    
 -0.40753761836196517        5.1442235660919579E-002   0.00000000    
 -0.43028958193512895        3.8813356311191725E-002   0.00000000    
 -0.44674918592705726        2.5315467193684597E-002   0.00000000    
 -0.45595650684729083        1.1221962623983022E-002   0.00000000    
 -0.45826015855161883       -3.3447415689594824E-003   0.00000000    
 -0.45282157835651526       -1.8076289262095500E-002   0.00000000    
 -0.44029917725481704       -3.2792505551912945E-002   0.00000000    
 -0.42003576444071655       -4.7166191605174400E-002   0.00000000    
 -0.39302067807171237       -6.0976045775543365E-002   0.00000000    
 -0.35882149787585177       -7.3903904790264971E-002   0.00000000    
 -0.31875117097929934       -8.5714799592181715E-002   0.00000000    
 -0.27261711808351335       -9.6134995968192943E-002   0.00000000    
 -0.22201181788067842      -0.10494835050210531        0.00000000    
 -0.16696366672035493      -0.11196055492659855        0.00000000    
 -0.10926404634342980      -0.11700374163148933        0.00000000    
  -4.9112704739273302E-002 -0.11998950300370731        0.00000000    
   1.1608215982120106E-002 -0.12081809191473601        0.00000000    
   7.2597712417093618E-002 -0.11952013100878581        0.00000000    
  0.13200447410200039      -0.11607166834075483        0.00000000    
  0.18950395824684979      -0.11062124303601449        0.00000000    
  0.24339607304724714      -0.10321699571506934        0.00000000    
  0.29340635174087787       -9.4110941272879764E-002   0.00000000    
  0.33809161029625223       -8.3410220234841723E-002   0.00000000    
  0.37728741373324676       -7.1443798605916306E-002   0.00000000    
  0.40988603745675201       -5.8357735221174274E-002   0.00000000    
  0.43587216691727854       -4.4522012472166014E-002   0.00000000    
  0.45451495215281013       -3.0098193434174608E-002   0.00000000    
  0.46596294781638664       -1.5457673679085961E-002   0.00000000    
  0.46986244519899578       -7.5583656384676059E-004   0.00000000    
  0.46651824083599164        1.3669876969158484E-002   0.00000000    
  0.45591744831882347        2.7685519661289511E-002   0.00000000    
  0.43849811284769441        4.1011956779702208E-002   0.00000000    
  0.41452712116831653        5.3543389792528755E-002   0.00000000    
  0.38454654362675522        6.5069523765363055E-002   0.00000000    
  0.34903191364033742        7.5511998868767319E-002   0.00000000    
  0.30860158547966599        8.4727599610569096E-002   0.00000000    
  0.26387128119766590        9.2660516742249802E-002   0.00000000    
  0.21551350049012166        9.9224716122593551E-002   0.00000000    
  0.16422652765182255       0.10438152817720034        0.00000000    
  0.11072075452130353       0.10808874266903970        0.00000000    
   5.5733480298181474E-002  0.11032178009684805        0.00000000    
   0.0000000000000000       0.11106928055957591        0.00000000    
   0.0000000000000000       0.16538486555115545        0.00000000    
  -5.5865350384006349E-002  0.16429499254264299        0.00000000    
 -0.11100714147472024       0.16085250007572258        0.00000000    
 -0.16458460656262686       0.15525813605494740        0.00000000    
 -0.21600709143204658       0.14737143713199996        0.00000000    
 -0.26433535685567400       0.13742352343379682        0.00000000    
 -0.30912938039888904       0.12531774623537187        0.00000000    
 -0.34937823970454285       0.11132388888626112        0.00000000    
 -0.38481664761823292        9.5405684294484080E-002   0.00000000    
 -0.41440092007990187        7.7882800090651710E-002   0.00000000    
 -0.43807361315990850        5.8797448534844657E-002   0.00000000    
 -0.45481115989266074        3.8528525697216015E-002   0.00000000    
 -0.46480553822871851        1.7210603376745483E-002   0.00000000    
 -0.46711798489673362       -4.7172839466684616E-003   0.00000000    
 -0.46223461976601765       -2.7025692210402415E-002   0.00000000    
 -0.44937034073784987       -4.9229782730570652E-002   0.00000000    
 -0.42934234512998315       -7.1020322848861075E-002   0.00000000    
 -0.40157916279409128       -9.1900183233680821E-002   0.00000000    
 -0.36724335101796218      -0.11151475930465173        0.00000000    
 -0.32601282763072265      -0.12940479535837171        0.00000000    
 -0.27937337106477106      -0.14521850966440228        0.00000000    
 -0.22725228231639522      -0.15859122575378079        0.00000000    
 -0.17139404337770789      -0.16922406977468832        0.00000000    
 -0.11193763327260328      -0.17689625726202995        0.00000000    
  -5.0784913284284153E-002 -0.18140104896644996        0.00000000    
   1.1780171429443247E-002 -0.18269255138368329        0.00000000    
   7.3822126370422389E-002 -0.18067712291660934        0.00000000    
  0.13499331501676459      -0.17549262676076124        0.00000000    
  0.19345427210023622      -0.16716072584511552        0.00000000    
  0.24887556028721858      -0.15599091588998376        0.00000000    
  0.29963481402987319      -0.14210655353496421        0.00000000    
  0.34549228507140817      -0.12595733756639579        0.00000000    
  0.38514187249910253      -0.10774207213965407        0.00000000    
  0.41848569778197175       -8.8001910690669302E-002   0.00000000    
  0.44459814420026356       -6.6976412881949901E-002   0.00000000    
  0.46354971815912394       -4.5238152215799535E-002   0.00000000    
  0.47481533947096305       -2.3031331873167506E-002   0.00000000    
  0.47863376269900954       -9.0009897761991146E-004   0.00000000    
  0.47485630901140163        2.0935797433443138E-002   0.00000000    
  0.46386911837015049        4.2007582358025208E-002   0.00000000    
  0.44584206350395150        6.2136284420400104E-002   0.00000000    
  0.42127747027450835        8.0954647063040272E-002   0.00000000    
  0.39058871167638304        9.8327602634860511E-002   0.00000000    
  0.35436291791841867       0.11399434374581856        0.00000000    
  0.31318075970353570       0.12785774110961917        0.00000000    
  0.26768896206089782       0.13975247716977646        0.00000000    
  0.21856932956942665       0.14961016889485848        0.00000000    
  0.16651079755100326       0.15734158026336637        0.00000000    
  0.11224543318940347       0.16289982807600045        0.00000000    
   5.6492777441865392E-002  0.16625062466202231        0.00000000    
   0.0000000000000000       0.16736669373568988        0.00000000    
   0.0000000000000000       0.22204198794177468        0.00000000    
  -5.6966964033642535E-002  0.22047018457088707        0.00000000    
 -0.11315227968391005       0.21600441479000279        0.00000000    
 -0.16790000628342844       0.20843141302897869        0.00000000    
 -0.22031543393181463       0.19803607267764492        0.00000000    
 -0.26988073090413522       0.18465245028466012        0.00000000    
 -0.31560660519685080       0.16860871722263432        0.00000000    
 -0.35713079429101724       0.14980596629905671        0.00000000    
 -0.39339908500476339       0.12863030551163979        0.00000000    
 -0.42423170446067809       0.10507507079100147        0.00000000    
 -0.44855452586010530        7.9600692316755511E-002   0.00000000    
 -0.46640896083126920        5.2317263618837394E-002   0.00000000    
 -0.47676258881768380        2.3769871780722856E-002   0.00000000    
 -0.47992671129742437       -5.7999832035649009E-003   0.00000000    
 -0.47498482946637677       -3.5768239911862003E-002   0.00000000    
 -0.46256873047640484       -6.5767613048194021E-002   0.00000000    
 -0.44195341592541770       -9.5125802686428215E-002   0.00000000    
 -0.41412841431254865      -0.12338288734605779        0.00000000    
 -0.37861955203071257      -0.14987672924635403        0.00000000    
 -0.33677902682907157      -0.17411387400693509        0.00000000    
 -0.28840820325827438      -0.19551971114852087        0.00000000    
 -0.23518008051639908      -0.21363923576145533        0.00000000    
 -0.17715160051334314      -0.22806277870455915        0.00000000    
 -0.11622670881922612      -0.23843885013302624        0.00000000    
  -5.2657669874460244E-002 -0.24458021502426650        0.00000000    
   1.1544970907130447E-002 -0.24628111082287601        0.00000000    
   7.6018239679176119E-002 -0.24360378718615447        0.00000000    
  0.13878390292877824      -0.23650281438883636        0.00000000    
  0.19945931984741111      -0.22528691221490479        0.00000000    
  0.25623502009363319      -0.21006171795500062        0.00000000    
  0.30879276125611999      -0.19135274637095429        0.00000000    
  0.35561247302713783      -0.16938832754442845        0.00000000    
  0.39650737397148939      -0.14485557052969095        0.00000000    
  0.43033712636005295      -0.11806198997335501        0.00000000    
  0.45708746158788771       -8.9779115241618773E-002   0.00000000    
  0.47604284076292441       -6.0342402991095334E-002   0.00000000    
  0.48737142347111789       -3.0521285114373461E-002   0.00000000    
  0.49077512633261333       -6.3227182676884653E-004   0.00000000    
  0.48658673015650306        2.8633820149571165E-002   0.00000000    
  0.47487284448612316        5.7010635952996172E-002   0.00000000    
  0.45609677649053426        8.3936353690186663E-002   0.00000000    
  0.43060991223211498       0.10920603528088246        0.00000000    
  0.39896920500104971       0.13240568024887220        0.00000000    
  0.36172439526519212       0.15338686962570586        0.00000000    
  0.31949603136761201       0.17187573734454265        0.00000000    
  0.27295486298033150       0.18776744696516745        0.00000000    
  0.22276534273791249       0.20090435183538344        0.00000000    
  0.16965894351227864       0.21121232856761923        0.00000000    
  0.11433322596352510       0.21862016168380144        0.00000000    
   5.7538758602252535E-002  0.22307741416407803        0.00000000    
   0.0000000000000000       0.22457144027912548        0.00000000    
   0.0000000000000000       0.27980020082749746        0.00000000    
  -5.8311100532748246E-002  0.27799003625294910        0.00000000    
 -0.11590776660311758       0.27226654482954882        0.00000000    
 -0.17195255349637661       0.26296179648402662        0.00000000    
 -0.22586085655519272       0.24982941993034893        0.00000000    
 -0.27668202597374647       0.23324556942506741        0.00000000    
 -0.32397106943458637       0.21303051583591359        0.00000000    
 -0.36668304262923956       0.18962032997724970        0.00000000    
 -0.40453095811769479       0.16293214803536707        0.00000000    
 -0.43640954913711849       0.13348443874567359        0.00000000    
 -0.46222159316102168       0.10132618978473049        0.00000000    
 -0.48085511174314749        6.7079719707609023E-002   0.00000000    
 -0.49244996102425825        3.0955892958406596E-002   0.00000000    
 -0.49596134175130546       -6.3105011706270650E-003   0.00000000    
 -0.49182559407767390       -4.4335351450912629E-002   0.00000000    
 -0.47915239886752553       -8.2289795705080604E-002   0.00000000    
 -0.45873357539052140      -0.11963775805929809        0.00000000    
 -0.42991711987745190      -0.15551238909463075        0.00000000    
 -0.39388702454799274      -0.18928618511113102        0.00000000    
 -0.35028574112467381      -0.22014622676235776        0.00000000    
 -0.30067950029367790      -0.24746442279718123        0.00000000    
 -0.24501234812775133      -0.27058979901563163        0.00000000    
 -0.18516309927675764      -0.28898994430689373        0.00000000    
 -0.12133028233112002      -0.30226939316534546        0.00000000    
  -5.5584172826655918E-002 -0.31006482044373684        0.00000000    
   1.1708685604133563E-002 -0.31229200461062595        0.00000000    
   7.8434939592587349E-002 -0.30879241616148334        0.00000000    
  0.14416176026735611      -0.29980666933274008        0.00000000    
  0.20688497958457094      -0.28538169350936843        0.00000000    
  0.26620373809403514      -0.26606139541118579        0.00000000    
  0.32036511821260721      -0.24207219019821197        0.00000000    
  0.36908403762766845      -0.21420751489838510        0.00000000    
  0.41097790054911959      -0.18282514704371616        0.00000000    
  0.44593653552060858      -0.14888080081475510        0.00000000    
  0.47302455894522788      -0.11279866305458794        0.00000000    
  0.49233104806708028       -7.5584723470679557E-002   0.00000000    
  0.50338519853655306       -3.7661697814058773E-002   0.00000000    
  0.50646316080974285        2.6475742233614881E-005   0.00000000    
  0.50151573795451632        3.7110891610650829E-002   0.00000000    
  0.48896863775641625        7.2794550364034649E-002   0.00000000    
  0.46910945022040013       0.10678769480987448        0.00000000    
  0.44246843219199433       0.13848257645127082        0.00000000    
  0.40957008664489120       0.16766819185616805        0.00000000    
  0.37101140247163744       0.19392785193037035        0.00000000    
  0.32746120679129664       0.21711331461772213        0.00000000    
  0.27955912033897001       0.23697312453403213        0.00000000    
  0.22804521394747798       0.25340210090076781        0.00000000    
  0.17359065104870980       0.26627554162865713        0.00000000    
  0.11695634835541732       0.27551696886556626        0.00000000    
   5.8842220168227190E-002  0.28108920253237518        0.00000000    
   0.0000000000000000       0.28294063068248593        0.00000000    
   0.0000000000000000       0.33918979925801157        0.00000000    
  -5.9930060036277370E-002  0.33684159839261124        0.00000000    
 -0.11909147952117391       0.33017306824682069        0.00000000    
 -0.17684281957856451       0.31885140001803786        0.00000000    
 -0.23228954449520511       0.30329484437397886        0.00000000    
 -0.28491902597581714       0.28323079588072170        0.00000000    
 -0.33371825420892970       0.25913356107690921        0.00000000    
 -0.37831160449384865       0.23082260821543477        0.00000000    
 -0.41758804539192457       0.19885422618691659        0.00000000    
 -0.45133008916990380       0.16318299539063472        0.00000000    
 -0.47836928262411949       0.12447887062158679        0.00000000    
 -0.49868601499825027        8.2877289825630612E-002   0.00000000    
 -0.51112060670837667        3.9187763835797598E-002   0.00000000    
 -0.51591189814947014       -6.2396998817201002E-003   0.00000000    
 -0.51200043425921071       -5.2453364299085668E-002   0.00000000    
 -0.49995865416356333       -9.8886758164977467E-002   0.00000000    
 -0.47893230141713922      -0.14448597181779255        0.00000000    
 -0.44989726173358385      -0.18851567053542162        0.00000000    
 -0.41229698967191541      -0.22991327105607104        0.00000000    
 -0.36754320736125712      -0.26787420655438376        0.00000000    
 -0.31542376926474697      -0.30146212192697031        0.00000000    
 -0.25775110311956845      -0.32993191820019147        0.00000000    
 -0.19463616525200531      -0.35261201183498564        0.00000000    
 -0.12818331424629562      -0.36893299359201387        0.00000000    
  -5.8743613028278414E-002 -0.37858703073352240        0.00000000    
   1.1443963772171278E-002 -0.38125022955556698        0.00000000    
   8.1902526162723505E-002 -0.37701900758949680        0.00000000    
  0.15042875954230725      -0.36583313196254152        0.00000000    
  0.21653549736637584      -0.34818518801487552        0.00000000    
  0.27821809150504145      -0.32425925355714869        0.00000000    
  0.33508150767617262      -0.29489912833614923        0.00000000    
  0.38546773165879866      -0.26048572016126076        0.00000000    
  0.42915456717157835      -0.22212764020952580        0.00000000    
  0.46494602340922331      -0.18032839886091123        0.00000000    
  0.49283774154068200      -0.13633080655929469        0.00000000    
  0.51214956460213390       -9.0670892151749796E-002   0.00000000    
  0.52309378175233001       -4.4573896747831410E-002   0.00000000    
  0.52548236494420109        1.4721292088837607E-003   0.00000000    
  0.51970421319050097        4.6390812757320370E-002   0.00000000    
  0.50597616555552227        8.9789777048831385E-002   0.00000000    
  0.48480743940122623       0.13082038181931790        0.00000000    
  0.45670290135031200       0.16919544552001073        0.00000000    
  0.42224210882516072       0.20431446086312419        0.00000000    
  0.38210437201571834       0.23597800390546755        0.00000000    
  0.33690766492200791       0.26381006541961771        0.00000000    
  0.28741473425330250       0.28767139085303028        0.00000000    
  0.23426873276257176       0.30736374246642501        0.00000000    
  0.17825315896774530       0.32278403675696860        0.00000000    
  0.12003626695291894       0.33385966844729309        0.00000000    
   6.0385496556439301E-002  0.34051140153520615        0.00000000    
   0.0000000000000000       0.34274614840572526        0.00000000    
   0.0000000000000000       0.40009897935212724        0.00000000    
  -6.1722495202152582E-002  0.39758497353835065        0.00000000    
 -0.12275412069477323       0.38962273807941089        0.00000000    
 -0.18227263602161775       0.37667158557172020        0.00000000    
 -0.23971200587390312       0.35836075358942310        0.00000000    
 -0.29411470083375008       0.33519706310838376        0.00000000    
 -0.34503679041805890       0.30688861166626158        0.00000000    
 -0.39139114509070455       0.27401526258689957        0.00000000    
 -0.43286390464304736       0.23641077226486246        0.00000000    
 -0.46826198183463191       0.19476657028610084        0.00000000    
 -0.49742807409954920       0.14910058144365723        0.00000000    
 -0.51911392943618684       0.10025816671875716        0.00000000    
 -0.53337125020375420        4.8498799418200053E-002   0.00000000    
 -0.53898147223746118       -5.1492219843389010E-003   0.00000000    
 -0.53628602954648119       -6.0150748780408471E-002   0.00000000    
 -0.52421262263711366      -0.11530456068316831        0.00000000    
 -0.50349002380149921      -0.16981712088483561        0.00000000    
 -0.47332011181025929      -0.22238947313720667        0.00000000    
 -0.43490086359361418      -0.27205898873622802        0.00000000    
 -0.38780692299219310      -0.31757621177994189        0.00000000    
 -0.33372417991403797      -0.35796229788005995        0.00000000    
 -0.27262468918542121      -0.39220389911422349        0.00000000    
 -0.20660469502388787      -0.41947496295429126        0.00000000    
 -0.13596808107135214      -0.43915950742407395        0.00000000    
  -6.3060494201948356E-002 -0.45070780499327440        0.00000000    
   1.1608970686187702E-002 -0.45398649697743143        0.00000000    
   8.5638780294441108E-002 -0.44877111217085880        0.00000000    
  0.15845359745859003      -0.43542207791797494        0.00000000    
  0.22778193016273568      -0.41403131259198628        0.00000000    
  0.29310630656008729      -0.38542009950927014        0.00000000    
  0.35245866832965439      -0.34995406032884985        0.00000000    
  0.40548391185751409      -0.30884225567252283        0.00000000    
  0.45067417224381717      -0.26264820060116101        0.00000000    
  0.48790955752341375      -0.21283467998035208        0.00000000    
  0.51624717627841032      -0.16005386232972740        0.00000000    
  0.53582144577450719      -0.10583392893313560        0.00000000    
  0.54626667692511965       -5.0800308270206943E-002   0.00000000    
  0.54793311054379734        3.6435239259457420E-003   0.00000000    
  0.54095028939760392        5.6980390937716459E-002   0.00000000    
  0.52581364843179845       0.10806488747391603        0.00000000    
  0.50301146232471872       0.15651618365372771        0.00000000    
  0.47311596258894667       0.20149968147641531        0.00000000    
  0.43683183837390022       0.24275514164561501        0.00000000    
  0.39476303145684716       0.27974386685301222        0.00000000    
  0.34771413780362237       0.31228980321830030        0.00000000    
  0.29630246328587329       0.34009625824374262        0.00000000    
  0.24135228586677107       0.36303505398544123        0.00000000    
  0.18349582935693778       0.38098475554494726        0.00000000    
  0.12353042796711398       0.39384124306446827        0.00000000    
   6.2115207224553062E-002  0.40159581805879618        0.00000000    
   0.0000000000000000       0.40416243566424159        0.00000000    
   0.0000000000000000       0.46310662405003261        0.00000000    
  -6.3704827104093614E-002  0.46000465114777783        0.00000000    
 -0.12667293945342531       0.45120279831373072        0.00000000    
 -0.18829648575032482       0.43623358696152276        0.00000000    
 -0.24769554421262230       0.41563718051670534        0.00000000    
 -0.30437766171739661       0.38900544864539544        0.00000000    
 -0.35731086153419561       0.35693551553356334        0.00000000    
 -0.40611196393692384       0.31912381579394311        0.00000000    
 -0.44960166562439058       0.27626468030153134        0.00000000    
 -0.48751548697596919       0.22822456079087455        0.00000000    
 -0.51855600035806682       0.17584919659048565        0.00000000    
 -0.54261299564839882       0.11925240219650372        0.00000000    
 -0.55833733968262966        5.9486228747502340E-002   0.00000000    
 -0.56584536176029709       -3.0184072053093445E-003   0.00000000    
 -0.56384887281898355       -6.6973495185850621E-002   0.00000000    
 -0.55280179712442012      -0.13160229688530634        0.00000000    