 <VTKFile type="UnstructuredGrid" version="0.1" byte_order="BigEndian">
 <UnstructuredGrid>
 <Piece NumberOfPoints="        2601 " NumberOfCells="        2500 ">
 <PointData Scalars="scalars">
 <DataArray type="Float32" NumberOfComponents="3" Name="Velocity" Format="ascii">
   0.0000000000000000        0.0000000000000000        0.00000000    
  -6.7283096119010025E-002   0.0000000000000000        0.00000000    
 -0.13599698009888481        0.0000000000000000        0.00000000    
 -0.20689971905018417        0.0000000000000000        0.00000000    
 -0.28290709206964787        0.0000000000000000        0.00000000    
 -0.36402434624085994        0.0000000000000000        0.00000000    
 -0.45861466976574411        0.0000000000000000        0.00000000    
 -0.56308733567124536        0.0000000000000000        0.00000000    
 -0.75335274614874337        0.0000000000000000        0.00000000    
  -1.2069726009873911        0.0000000000000000        0.00000000    
  -2.3363901921063137        0.0000000000000000        0.00000000    
  -7.6810173526038206        0.0000000000000000        0.00000000    
  -10.556921179049089        0.0000000000000000        0.00000000    
  -41.154826880734831        0.0000000000000000        0.00000000    
  -30.209687582046982        0.0000000000000000        0.00000000    
  0.91603852849991352        0.0000000000000000        0.00000000    
  -2.0436718658577435        0.0000000000000000        0.00000000    
   3.6293629377923367        0.0000000000000000        0.00000000    
   4.2816273149187651        0.0000000000000000        0.00000000    
   4.6718633249364476        0.0000000000000000        0.00000000    
   2.3667439353470860        0.0000000000000000        0.00000000    
   1.3115694763826933        0.0000000000000000        0.00000000    
 -0.61496617752716887        0.0000000000000000        0.00000000    
 -0.11476918736767296        0.0000000000000000        0.00000000    
 -0.50080784450031202        0.0000000000000000        0.00000000    
   6.1090909512673958E-002   0.0000000000000000        0.00000000    
 -0.26500633619713510        0.0000000000000000        0.00000000    
  0.71541305811365818        0.0000000000000000        0.00000000    
 -0.49095798795455081        0.0000000000000000        0.00000000    
   2.0984927170321317        0.0000000000000000        0.00000000    
 -0.84852416171273670        0.0000000000000000        0.00000000    
   15.406650921613650        0.0000000000000000        0.00000000    
   19.318078949249745        0.0000000000000000        0.00000000    
  -2.7268625599386609        0.0000000000000000        0.00000000    
  -9.1986893702855212        0.0000000000000000        0.00000000    
  -28.069970711619451        0.0000000000000000        0.00000000    
  -16.401206544238622        0.0000000000000000        0.00000000    
  -2.9617266634345145        0.0000000000000000        0.00000000    
   16.125428658952920        0.0000000000000000        0.00000000    
   24.633482455117580        0.0000000000000000        0.00000000    
   1.9665458012465655        0.0000000000000000        0.00000000    
   1.0010134317613690        0.0000000000000000        0.00000000    
  0.67616471454597349        0.0000000000000000        0.00000000    
  0.53505439376470232        0.0000000000000000        0.00000000    
  0.43523214530363818        0.0000000000000000        0.00000000    
  0.34675021841203379        0.0000000000000000        0.00000000    
  0.27002579802482674        0.0000000000000000        0.00000000    
  0.19776790203146918        0.0000000000000000        0.00000000    
  0.13017799574998207        0.0000000000000000        0.00000000    
   6.4431105445881154E-002   0.0000000000000000        0.00000000    
   0.0000000000000000        0.0000000000000000        0.00000000    
   0.0000000000000000        6.6406942097604116E-002   0.00000000    
  -6.6031384969412674E-002   6.6907538988758286E-002   0.00000000    
 -0.13305145581639835        6.8826415836023738E-002   0.00000000    
 -0.20288803624907345        7.1912903545838208E-002   0.00000000    
 -0.27605130155497093        7.7257734777346695E-002   0.00000000    
 -0.35662968223526137        8.4437900071893779E-002   0.00000000    
 -0.44454909626631939        9.8071837481629842E-002   0.00000000    
 -0.55446805945778299       0.11631979161270510        0.00000000    
 -0.68235333779873553       0.20183089720251965        0.00000000    
 -0.77630179650269526       0.34573741633484950        0.00000000    
 -0.63003112409247852       0.63740950238126937        0.00000000    
  0.46775816113310786        3.6094283729605534        0.00000000    
  -44.353456880386148        44.087690495088545        0.00000000    
  -32.556807646138083       -25.286434027545791        0.00000000    
   3.1000934725459617       -21.315606389730934        0.00000000    
  -6.4282941599366445      -0.28173208824429907        0.00000000    
   1.1054313580223383       -4.2922830352648722        0.00000000    
   1.5823770308186837       -1.8576974410971323        0.00000000    
   4.0155245295061688       -1.2277144346282791        0.00000000    
   3.7313687110051958        1.1216342431941662        0.00000000    
   2.3079147977529808        2.6069390597346422        0.00000000    
 -0.66588405777206650        1.4220342548403435        0.00000000    
  -9.3634525315209383E-002  -6.7748133303380059E-002   0.00000000    
 -0.49128636420245680       -3.4797017883867430E-002   0.00000000    
  -5.2954991230901458E-002  -1.7495697879141892E-002   0.00000000    
 -0.43460995994179913      -0.16274808734456153        0.00000000    
  0.27129880468096762      -0.21706343150075930        0.00000000    
  -6.2594603067766805E-002 -0.42946255499069313        0.00000000    
   1.1050269345208652       0.46821206353139555        0.00000000    
 -0.91451935900775949       -1.0381164749255678        0.00000000    
   3.2175000857921172      -0.14688609107864298        0.00000000    
  -2.0202006238208310       -10.870588282580274        0.00000000    
   15.953315404285078       -11.014355773132696        0.00000000    
   19.161149052413492        29.851463634233415        0.00000000    
  -30.003582305613566        25.785094534148236        0.00000000    
  -19.887485145716845       -17.029910352682204        0.00000000    
  0.72629463211849610       -15.252633592523498        0.00000000    
   1.2431302488730125        1.2963180949897843        0.00000000    
  -4.7380531148779319       -14.402290053605247        0.00000000    
  -10.104945034203896        11.261128176788802        0.00000000    
  0.68908103725207481       0.61178240564419639        0.00000000    
  0.75436684410877153       0.28846415697006977        0.00000000    
  0.63910821227320114       0.15164319207695581        0.00000000    
  0.52074715193581111       0.10782818903868834        0.00000000    
  0.42168872161526016        9.1052489740306136E-002   0.00000000    
  0.33954914347573378        7.9569015288424111E-002   0.00000000    
  0.26349856266503691        7.3205985907222382E-002   0.00000000    
  0.19406830900204911        6.8482163746956648E-002   0.00000000    
  0.12739045206255364        6.5785599471919795E-002   0.00000000    
   6.3284810566361177E-002   6.4066932326303339E-002   0.00000000    
   0.0000000000000000        6.3648983683886218E-002   0.00000000    
   0.0000000000000000       0.13008200204580359        0.00000000    
  -6.2061308725996654E-002  0.13132517273391511        0.00000000    
 -0.12514985239052076       0.13451739660031078        0.00000000    
 -0.18989549944093370       0.14080415026253507        0.00000000    
 -0.25815263270104505       0.14978688662451273        0.00000000    
 -0.33057586291030033       0.16491035911203067        0.00000000    
 -0.41070991961329800       0.18565284917322586        0.00000000    
 -0.50195909084327472       0.22990691433999250        0.00000000    
 -0.58774968965476648       0.30191965162510909        0.00000000    
 -0.66705373635341969       0.41890116731235094        0.00000000    
 -0.71287127724514554       0.46379261988432929        0.00000000    
  0.37066048357091580        1.6017242094155797        0.00000000    
   46.236191236373863        45.051078947500201        0.00000000    
   49.347051383789179       -41.157331861535255        0.00000000    
   7.9807181046201849       0.26472360483177765        0.00000000    
   2.0615677632503049       -6.4145241088554554        0.00000000    
  -3.9691024589052466       0.33745368962543210        0.00000000    
  -2.4742536646212918       -8.4592286329723922        0.00000000    
   3.7609776715929373       -3.2945620775800744        0.00000000    
   1.6633751468317106        5.5702402294997588        0.00000000    
  -3.2508858242335270        4.4960479578265007        0.00000000    
  -1.1566164033965971       0.41245479152576942        0.00000000    
 -0.70757374665119244       -7.9460859100012715E-002   0.00000000    
   5.8704564963047969E-002 -0.39171076473818661        0.00000000    
 -0.12492855939199070        8.4719800447794660E-002   0.00000000    
 -0.14663827476415400       0.13840109847572379        0.00000000    
 -0.49352323916797225      -0.87723641745908809        0.00000000    
  0.67042889223044055      -0.59934829262469869        0.00000000    
  0.61640412192452854      -0.47549896604449726        0.00000000    
  0.66442742281153122        1.8771175473445114        0.00000000    
  -2.2537067847961669       -4.2760053504698918        0.00000000    
  -3.1849307868183003      -0.57254431152211682        0.00000000    
  -24.262933804922312       -18.207912754124621        0.00000000    
  -24.747175204521401        34.321428366684081        0.00000000    
   21.731110661138537        24.001575294121722        0.00000000    
   29.202765167372448       -32.834142778810524        0.00000000    
   11.553646571444265       -2.4130623482632454        0.00000000    
   3.7310917253977118       -4.2375339199673308        0.00000000    
 -0.17585830236249803        1.0196953528924249        0.00000000    
  0.53170697736367845       0.49846940991788630        0.00000000    
  0.64255740224819013       0.46956467617366260        0.00000000    
  0.63249979874172158       0.37545368308843757        0.00000000    
  0.55494978620815638       0.25746231032471412        0.00000000    
  0.46959288705376839       0.20572703027996139        0.00000000    
  0.38940592748985736       0.17239903838098095        0.00000000    
  0.31485582569984683       0.15491214657495159        0.00000000    
  0.24685714010642551       0.14191212102258610        0.00000000    
  0.18190118939564473       0.13416223300321814        0.00000000    
  0.12007808504151639       0.12860649150718845        0.00000000    
   5.9573300336590057E-002  0.12585646649009369        0.00000000    
   0.0000000000000000       0.12471756042100231        0.00000000    
   0.0000000000000000       0.18909155452042115        0.00000000    
  -5.5958325698998973E-002  0.19033525468226473        0.00000000    
 -0.11237973757845565       0.19501727019389697        0.00000000    
 -0.16994940177147805       0.20261958791032231        0.00000000    
 -0.22904718457184567       0.21532636503508706        0.00000000    
 -0.29019808179071699       0.23294500812743524        0.00000000    
 -0.35447794080144523       0.26203211586928743        0.00000000    
 -0.41467578422517504       0.30497466229538533        0.00000000    
 -0.46925476551193640       0.36722148376564528        0.00000000    
 -0.47924166844604427       0.44289028480261866        0.00000000    
 -0.42709441075434218       0.43347378559195499        0.00000000    
 -0.30741175496480405       0.42882862709781966        0.00000000    
 -0.21103650924802958       0.26206853129581070        0.00000000    
   1.6686313615184124E-002  0.29309558446971967        0.00000000    
  0.22734746887930063       -3.0031717172642188E-002   0.00000000    
  0.17515276420379691      -0.14842374071862241        0.00000000    
  0.19067437313214766        8.6501934825257532E-002   0.00000000    
  -4.3246712616370857       -5.1877800376154077        0.00000000    
  -12.820834774184409       -4.3050784965133140        0.00000000    
  -10.218053925749498        6.0755783248192801        0.00000000    
  -2.3239521022804341        1.0108690102032263        0.00000000    
 -0.57035095649807754        4.9763172622055860E-002   0.00000000    
 -0.27721681053857133      -0.45894604281624096        0.00000000    
 -0.50818841963517469      -0.54753228343797344        0.00000000    
 -0.17013286584671883        8.6118889773342436E-002   0.00000000    
  0.34791961193621157      -0.35934075316895064        0.00000000    
  0.55544136127087818      -0.24013135069143704        0.00000000    
 -0.35835100180881402       -1.4866131276279302        0.00000000    
 -0.48173036717140277       0.58917000467380276        0.00000000    
  0.55817323775689376      -0.27547832911515502        0.00000000    
   1.1748246799843252       0.17807329142125583        0.00000000    
 -0.40261334882710648       -2.5179609224869357        0.00000000    
   1.1187354980392836        3.2941580280719425        0.00000000    
   9.7870296604912035        4.6353048217229817        0.00000000    
   16.066018484950352       0.93042414891586700        0.00000000    
   8.1987963864351947       -9.3674240412623710        0.00000000    
 -0.45683242916366029       0.42496632570316328        0.00000000    
  0.11300247074701400       0.17715735224656914        0.00000000    
  0.30818526284776904       0.31677131636273725        0.00000000    
  0.41570930993975397       0.38630411962867889        0.00000000    
  0.45237072914698945       0.43421812236969937        0.00000000    
  0.47419997174662726       0.39902859779743344        0.00000000    
  0.45456997810763006       0.33106740178616412        0.00000000    
  0.39724941140599379       0.27479940467213404        0.00000000    
  0.33795153580541865       0.24281149915098763        0.00000000    
  0.27814484637591064       0.21885647702222519        0.00000000    
  0.21989434603959002       0.20421697650290066        0.00000000    
  0.16350945695107230       0.19319821732009976        0.00000000    
  0.10820202848984883       0.18670104000359983        0.00000000    
   5.3922738004443319E-002  0.18254599318197917        0.00000000    
   0.0000000000000000       0.18152407206812868        0.00000000    
   0.0000000000000000       0.24082714023587640        0.00000000    
  -4.8064526396086632E-002  0.24262252105989954        0.00000000    
  -9.6170698002425531E-002  0.24725758730005823        0.00000000    
 -0.14431726351653493       0.25609550050926566        0.00000000    
 -0.19210280616692760       0.26873377788486752        0.00000000    
 -0.23934329191443501       0.28792897824193853        0.00000000    
 -0.28214886034021536       0.31413357318920804        0.00000000    
 -0.31790168999556201       0.34882387805239590        0.00000000    
 -0.33044723358088701       0.39049679287868866        0.00000000    
 -0.30624210693775816       0.40539675197847952        0.00000000    
 -0.26889476931201384       0.38147272309636804        0.00000000    
 -0.22511479244567997       0.31736705693562611        0.00000000    
 -0.16262728839438778       0.21466735168863788        0.00000000    
 -0.12860692422797210        7.8753577045960921E-002   0.00000000    
 -0.10936124745399312       -4.5596541789471250E-002   0.00000000    
  -7.4537797010841025E-002 -0.11548766190712950        0.00000000    
   5.5923409666210531E-002  -9.2416959591703762E-002   0.00000000    
   5.2405663157775478E-002 -0.48999776191081773        0.00000000    
  -5.8212421013756316E-002 -0.39607917549533994        0.00000000    
  -6.8867859562533384E-002 -0.42554640606164507        0.00000000    
  -8.2916078659775155E-002 -0.36805986331585838        0.00000000    
  -6.7424386782189968E-002 -0.34040079151993752        0.00000000    
  -5.1421410037906401E-002 -0.37791920137787055        0.00000000    
  -4.4122983490206304E-002 -0.40488594305967363        0.00000000    
  -2.6876739578318272E-002 -0.41182924830394674        0.00000000    
   8.8585919621880487E-003 -0.41518042448435899        0.00000000    
   3.5247145001747679E-002 -0.41820198174935641        0.00000000    
   4.5336801193745571E-002 -0.40483978974914236        0.00000000    
   5.7932860086004678E-002 -0.38182002673407628        0.00000000    
   7.5478692223809152E-002 -0.36193773477917496        0.00000000    
   9.1425107272568140E-002 -0.36806516019084629        0.00000000    
   9.1704868005071785E-002 -0.39466420358559240        0.00000000    
  0.11393257649223977      -0.37271524617909768        0.00000000    
  0.13221723047375009      -0.38440072061646013        0.00000000    
  0.12643199384406018      -0.32307389656210056        0.00000000    
  0.11979359670511278      -0.24006550029537185        0.00000000    
  0.13097478946554642       -5.7944592430226670E-002   0.00000000    
  0.16746776891286078        5.3740391021671004E-002   0.00000000    
  0.20165527491136709       0.21081797948355654        0.00000000    
  0.24760009841802871       0.33878858590781463        0.00000000    
  0.30196996064518183       0.39070237465469065        0.00000000    
  0.33401721169951765       0.38866785185673691        0.00000000    
  0.33483775124579940       0.36023760181762876        0.00000000    
  0.31427756971843707       0.32350995286762174        0.00000000    
  0.27501859199357642       0.29265780427879923        0.00000000    
  0.23205144772771905       0.27178400558768034        0.00000000    
  0.18620484894741071       0.25538654705199842        0.00000000    
  0.13983655331398023       0.24478183149091412        0.00000000    
   9.3216171525489930E-002  0.23704523608048483        0.00000000    
   4.6587590716789640E-002  0.23310966839720570        0.00000000    
   0.0000000000000000       0.23147072557214859        0.00000000    
   0.0000000000000000       0.28466111446879822        0.00000000    
  -3.9100070738630116E-002  0.28595314395974569        0.00000000    
  -7.7806883041156447E-002  0.29073994830711836        0.00000000    
 -0.11541516883019035       0.29836799080338977        0.00000000    
 -0.15130901858069543       0.31014067998965267        0.00000000    
 -0.18310401578593929       0.32555755908792772        0.00000000    
 -0.20872936455935082       0.34493590954039660        0.00000000    
 -0.22132610256737517       0.36637110936261646        0.00000000    
 -0.21447969819859689       0.37864870078303292        0.00000000    
 -0.19258938334416204       0.37114940257461360        0.00000000    
 -0.15390674978274790       0.33969010131121535        0.00000000    
 -0.10570180631328210       0.26716475838335052        0.00000000    
  -7.2124232085536755E-002  0.16880457196016066        0.00000000    
  -4.1488186547887357E-002   5.9959947069307268E-002   0.00000000    
  -3.2874096539500790E-002  -5.4662678595936071E-002   0.00000000    
  -3.9972530666896725E-002 -0.13414654141684765        0.00000000    
  -2.2643663434443333E-002 -0.22154815399199837        0.00000000    
  -2.6322761051327973E-002 -0.35366972338980823        0.00000000    
  -5.1585922010704610E-002 -0.39652596888557906        0.00000000    
  -6.8399206764452700E-002 -0.39763088937016966        0.00000000    
  -7.1661640531267959E-002 -0.37866472714342136        0.00000000    
  -5.0121718402239696E-002 -0.36682754169920628        0.00000000    
  -3.0410456734034429E-002 -0.38720668961126142        0.00000000    
  -2.2172160575053165E-002 -0.41113517753309464        0.00000000    
  -1.1122224970860819E-002 -0.43387619334672933        0.00000000    
   6.0141129339103530E-003 -0.44600514888758375        0.00000000    
   2.1803257757050408E-002 -0.42955495520908393        0.00000000    
   3.2461882262463063E-002 -0.41423509698697752        0.00000000    
   4.3302980751996858E-002 -0.39586187687823060        0.00000000    
   5.9036936848078703E-002 -0.38117567286910026        0.00000000    
   7.5169394682213730E-002 -0.38090609498401606        0.00000000    
   8.1990182481279789E-002 -0.38892381732418729        0.00000000    
   7.5589288140866545E-002 -0.39428244658749001        0.00000000    
   6.7223490220341450E-002 -0.37275237627289537        0.00000000    
   5.7016899632897369E-002 -0.31873041368869426        0.00000000    
   3.9705847194351301E-002 -0.22045953359500239        0.00000000    
   4.2233520122140128E-002  -9.1259424819482959E-002   0.00000000    
   5.5874645119350121E-002   3.6921118965761619E-002   0.00000000    
   7.8780113531408236E-002  0.17054427712714090        0.00000000    
  0.12918471802839163       0.28271286025895231        0.00000000    
  0.17788185927534325       0.34371109682786727        0.00000000    
  0.21346182360234126       0.36803191430054943        0.00000000    
  0.23087876299221594       0.36263606043585506        0.00000000    
  0.22651186134605319       0.34603857742100608        0.00000000    
  0.20934852123081002       0.32655149756356328        0.00000000    
  0.18109576440900094       0.30911021338859113        0.00000000    
  0.14877393626555790       0.29622876617286059        0.00000000    
  0.11313626837171531       0.28594557589535330        0.00000000    
   7.6165013473809828E-002  0.27947312836048571        0.00000000    
   3.8245044980716389E-002  0.27523032541705050        0.00000000    
   0.0000000000000000       0.27418270424786811        0.00000000    
   0.0000000000000000       0.31904846199219378        0.00000000    
  -2.9778193876391072E-002  0.32044406104946971        0.00000000    
  -5.8704939930563436E-002  0.32388258957219385        0.00000000    
  -8.5976321362959768E-002  0.33010501675783271        0.00000000    
 -0.10994011951150448       0.33826130193235859        0.00000000    
 -0.12910309451277116       0.34839490934981215        0.00000000    
 -0.14002863592255713       0.35864944945982308        0.00000000    
 -0.13959693514423496       0.36482260667099492        0.00000000    
 -0.12701534756635516       0.36076921152615293        0.00000000    
 -0.10108386934743774       0.34120709875633110        0.00000000    
  -6.6166777475110836E-002  0.29603267969407954        0.00000000    
  -3.2350479500366063E-002  0.22880093855462785        0.00000000    
   7.7543164035300479E-005  0.14116279489541400        0.00000000    
   1.6324103792887887E-002   4.0719117966330640E-002   0.00000000    
   2.2453281889764531E-002  -5.0165117599114101E-002   0.00000000    
   3.0204281556510372E-002 -0.13929666795376464        0.00000000    
   3.0774606507803455E-002 -0.23429721963969152        0.00000000    
   1.4897411579922127E-002 -0.32136436519804645        0.00000000    
  -1.5587488478448989E-002 -0.37308326606014758        0.00000000    
  -3.5155522262647607E-002 -0.38469227365814468        0.00000000    
  -3.7925169365831117E-002 -0.38557126198581304        0.00000000    
  -3.1423660335191256E-002 -0.38796243801678887        0.00000000    
  -1.8251729227193269E-002 -0.39895498607016366        0.00000000    
  -6.1608892007839113E-003 -0.41971601725987395        0.00000000    
   1.7837065343199495E-003 -0.44428988495942018        0.00000000    
   5.1190739242489066E-003 -0.45606316257062396        0.00000000    
   1.1138109838787892E-002 -0.44130512226408386        0.00000000    
   2.1363683468125415E-002 -0.42336912806697408        0.00000000    
   3.1327567869018969E-002 -0.40753282868894569        0.00000000    
   4.2078737962120631E-002 -0.39598984724788094        0.00000000    
   5.0240706946728740E-002 -0.39038634742429679        0.00000000    
   5.1903986350709037E-002 -0.38792763208729553        0.00000000    
   4.4139115951691919E-002 -0.38111286708542697        0.00000000    
   2.3575434385395704E-002 -0.35699247628875846        0.00000000    
  -2.9587388671245725E-003 -0.29774954983351715        0.00000000    
  -1.9501748625364659E-002 -0.20758633525434528        0.00000000    
  -2.7327862274504150E-002  -9.8834182439747176E-002   0.00000000    
  -1.9313986547543221E-002   2.2840875860675885E-002   0.00000000    
   6.3207380987396799E-003  0.13608432717270827        0.00000000    
   4.0316428287512078E-002  0.23277251552607853        0.00000000    
   8.2883365259101824E-002  0.30238736334064326        0.00000000    
  0.11841192233917582       0.33824712637905602        0.00000000    
  0.14069011699522851       0.35272571430970190        0.00000000    
  0.14973148173544276       0.35127446045131117        0.00000000    
  0.14469063239776672       0.34351980398432225        0.00000000    
  0.13116776862838359       0.33391752755714432        0.00000000    
  0.11023560692055770       0.32467544185367658        0.00000000    
   8.5702939248144941E-002  0.31766923577889516        0.00000000    
   5.8272867008159694E-002  0.31215079561293607        0.00000000    
   2.9516460448791634E-002  0.30922903321516798        0.00000000    
   0.0000000000000000       0.30794550187736602        0.00000000    
   0.0000000000000000       0.34466858513824838        0.00000000    
  -2.0671161143829980E-002  0.34527329292178899        0.00000000    
  -4.0368725306518645E-002  0.34767766791488480        0.00000000    
  -5.7796259984076788E-002  0.35100885452325448        0.00000000    
  -7.1789076144944633E-002  0.35531407847449992        0.00000000    
  -8.0288411035595961E-002  0.35900444269776383        0.00000000    
  -8.1582820789795202E-002  0.36025986727402814        0.00000000    
  -7.4166844192109227E-002  0.35536451147900033        0.00000000    
  -5.7262034528004567E-002  0.34074090947439917        0.00000000    
  -3.2317772449568162E-002  0.31035966050905883        0.00000000    
  -3.7541692275851945E-003  0.26339942284540768        0.00000000    
   2.6053969249653527E-002  0.19780975894986583        0.00000000    
   4.8001449534083154E-002  0.11777847154996220        0.00000000    
   6.3283791823081414E-002   3.2574538392787504E-002   0.00000000    
   7.1022165520070957E-002  -5.5888089820472282E-002   0.00000000    
   7.1574778976529099E-002 -0.14187730885653924        0.00000000    
   6.4528333700549459E-002 -0.22524045841302964        0.00000000    
   4.6003002629356110E-002 -0.29601860042639161        0.00000000    
   2.3253146206528973E-002 -0.34519427435126082        0.00000000    
   2.7856657280308211E-003 -0.37254575110488991        0.00000000    
  -7.3958209557232219E-003 -0.38476665075262800        0.00000000    
  -7.3742740483235944E-003 -0.39529010518843982        0.00000000    
  -2.9148775109522165E-003 -0.40925864654429472        0.00000000    
   3.0469507643051041E-003 -0.42746502508776052        0.00000000    
   5.9645472434715135E-003 -0.44740306934626106        0.00000000    
   6.5453975185616794E-003 -0.45686619584929244        0.00000000    
   8.3366326645208880E-003 -0.44831236004642067        0.00000000    
   1.2489935911852535E-002 -0.43074076716170534        0.00000000    
   1.7969290450433675E-002 -0.41560442853409113        0.00000000    
   2.2293553011395469E-002 -0.40299368005719122        0.00000000    
   2.3495563305849985E-002 -0.39274649389449701        0.00000000    
   1.8466586499932970E-002 -0.38220178821565132        0.00000000    
   4.2659389142524692E-003 -0.36487319297296006        0.00000000    
  -1.7960032535915712E-002 -0.33044249738540787        0.00000000    
  -4.1863597121262613E-002 -0.27386179089983198        0.00000000    
  -6.2780805959389341E-002 -0.19401387559251956        0.00000000    
  -7.1475009707199999E-002  -9.5886324705699258E-002   0.00000000    
  -6.6898539940507193E-002   7.3026726318840890E-003   0.00000000    
  -4.9822680904297652E-002  0.10891194671767854        0.00000000    
  -2.0338019623070042E-002  0.19646454450976414        0.00000000    
   1.2278070341460218E-002  0.26351230741930481        0.00000000    
   4.4341405155310903E-002  0.30953029040489771        0.00000000    
   6.9033380168333047E-002  0.33447238061312506        0.00000000    
   8.3327670576410898E-002  0.34619213899788187        0.00000000    
   8.8408304808469687E-002  0.34856234054160318        0.00000000    
   8.4219950390907433E-002  0.34658620918500754        0.00000000    
   7.4136866481912880E-002  0.34302200584081372        0.00000000    
   5.8928253456500379E-002  0.33906395248774951        0.00000000    
   4.0934575645799602E-002  0.33617982895293086        0.00000000    
   2.0870447219626255E-002  0.33402053485887429        0.00000000    
   0.0000000000000000       0.33354090790023744        0.00000000    
   0.0000000000000000       0.36128524032879145        0.00000000    
  -1.2358319990987821E-002  0.36168611886426716        0.00000000    
  -2.3599881312295349E-002  0.36220396745461131        0.00000000    
  -3.2695586777965878E-002  0.36300579512496373        0.00000000    
  -3.8210359403555605E-002  0.36282472665747284        0.00000000    
  -3.9031454100658718E-002  0.36081422410077163        0.00000000    
  -3.3828618119558590E-002  0.35454165964238171        0.00000000    
  -2.2052105611959454E-002  0.34189023000363783        0.00000000    
  -3.8068247957580670E-003  0.31906510046779746        0.00000000    
   1.8868977641588607E-002  0.28441540499825180        0.00000000    
   4.4277456533771770E-002  0.23537159624053916        0.00000000    
   6.7066626422941811E-002  0.17324027718687157        0.00000000    
   8.6306498655620109E-002  0.10116060079455695        0.00000000    
   9.8215644329328680E-002   2.2000921184277610E-002   0.00000000    
  0.10332032800563849       -5.8157529986332182E-002   0.00000000    
  0.10116831849450934      -0.13800847263697336        0.00000000    