 <VTKFile type="UnstructuredGrid" version="0.1" byte_order="BigEndian">
 <UnstructuredGrid>
 <Piece NumberOfPoints="        2601 " NumberOfCells="        2500 ">
 <PointData Scalars="scalars">
 <DataArray type="Float32" NumberOfComponents="3" Name="Velocity" Format="ascii">
   0.0000000000000000        0.0000000000000000        0.00000000    
 -0.15651748668916807        0.0000000000000000        0.00000000    
 -0.31259589812697186        0.0000000000000000        0.00000000    
 -0.46791321104176381        0.0000000000000000        0.00000000    
 -0.62175826124822930        0.0000000000000000        0.00000000    
 -0.77377063216638531        0.0000000000000000        0.00000000    
 -0.92278289990654061        0.0000000000000000        0.00000000    
  -1.0682120472232295        0.0000000000000000        0.00000000    
  -1.2081928291816459        0.0000000000000000        0.00000000    
  -1.3416831291722509        0.0000000000000000        0.00000000    
  -1.4658048037438680        0.0000000000000000        0.00000000    
  -1.5787629329206410        0.0000000000000000        0.00000000    
  -1.6763075945599784        0.0000000000000000        0.00000000    
  -1.7555892868365381        0.0000000000000000        0.00000000    
  -1.8107365540830380        0.0000000000000000        0.00000000    
  -1.8377151857738996        0.0000000000000000        0.00000000    
  -1.8293633126756472        0.0000000000000000        0.00000000    
  -1.7809827354197441        0.0000000000000000        0.00000000    
  -1.6864065483737098        0.0000000000000000        0.00000000    
  -1.5424554828643464        0.0000000000000000        0.00000000    
  -1.3515792582544086        0.0000000000000000        0.00000000    
  -1.1169264139645854        0.0000000000000000        0.00000000    
 -0.85674381347120954        0.0000000000000000        0.00000000    
 -0.57778904826220268        0.0000000000000000        0.00000000    
 -0.29949381856053225        0.0000000000000000        0.00000000    
  -1.9325663293672045E-002   0.0000000000000000        0.00000000    
  0.25985499188850369        0.0000000000000000        0.00000000    
  0.54006177352455653        0.0000000000000000        0.00000000    
  0.82050544053002439        0.0000000000000000        0.00000000    
   1.0847119641019198        0.0000000000000000        0.00000000    
   1.3246351301996957        0.0000000000000000        0.00000000    
   1.5213708322810400        0.0000000000000000        0.00000000    
   1.6719542653639181        0.0000000000000000        0.00000000    
   1.7719905486159482        0.0000000000000000        0.00000000    
   1.8256945947811600        0.0000000000000000        0.00000000    
   1.8378352881291027        0.0000000000000000        0.00000000    
   1.8141668476698969        0.0000000000000000        0.00000000    
   1.7611102539126866        0.0000000000000000        0.00000000    
   1.6834647732853134        0.0000000000000000        0.00000000    
   1.5867249399341450        0.0000000000000000        0.00000000    
   1.4742512231535700        0.0000000000000000        0.00000000    
   1.3500776588923025        0.0000000000000000        0.00000000    
   1.2163339889462268        0.0000000000000000        0.00000000    
   1.0757542807696197        0.0000000000000000        0.00000000    
  0.92960393808710706        0.0000000000000000        0.00000000    
  0.77964774052862418        0.0000000000000000        0.00000000    
  0.62661942603223397        0.0000000000000000        0.00000000    
  0.47162291334974760        0.0000000000000000        0.00000000    
  0.31511611133764300        0.0000000000000000        0.00000000    
  0.15778354313950965        0.0000000000000000        0.00000000    
   0.0000000000000000        0.0000000000000000        0.00000000    
   0.0000000000000000       0.15619857542208754        0.00000000    
 -0.15570560050856055       0.15602451177567053        0.00000000    
 -0.31105858100356759       0.15540688015708085        0.00000000    
 -0.46551559727510122       0.15436744902936436        0.00000000    
 -0.61876806911345816       0.15273007301530700        0.00000000    
 -0.76992131028222122       0.15043553907182650        0.00000000    
 -0.91854989258694641       0.14720531097280509        0.00000000    
  -1.0632045470679055       0.14287849082516110        0.00000000    
  -1.2031418479250047       0.13703959198999524        0.00000000    
  -1.3360872341520815       0.12939609422812523        0.00000000    
  -1.4607205463920305       0.11935889258295493        0.00000000    
  -1.5736009271911300       0.10647961739349485        0.00000000    
  -1.6725281989727505        8.9992316026828140E-002   0.00000000    
  -1.7525525275168119        6.9313704794537481E-002   0.00000000    
  -1.8103377632003068        4.3618798134644830E-002   0.00000000    
  -1.8393234295653016        1.2345499922155272E-002   0.00000000    
  -1.8350967582815427       -2.4924044305191188E-002   0.00000000    
  -1.7903120888385746       -6.8241202392494857E-002   0.00000000    
  -1.7004898604093579      -0.11615721308402942        0.00000000    
  -1.5611581013107965      -0.16712561152242383        0.00000000    
  -1.3707420833698034      -0.21416663103006295        0.00000000    
  -1.1382153444754395      -0.25301295215233094        0.00000000    
 -0.86973333682074616      -0.27565165599759245        0.00000000    
 -0.58966416595054683      -0.28337228007952503        0.00000000    
 -0.30194549003725529      -0.28264162553754746        0.00000000    
  -1.9614550661552984E-002 -0.27985746910279563        0.00000000    
  0.26413139199940550      -0.28306912874253864        0.00000000    
  0.55139158153019674      -0.28439784242219429        0.00000000    
  0.83406725354815903      -0.27872149660329310        0.00000000    
   1.1060607319052789      -0.25747850532388022        0.00000000    
   1.3438361419244900      -0.22022007079486783        0.00000000    
   1.5408465745998783      -0.17352606396031997        0.00000000    
   1.6861107778023035      -0.12232157232642629        0.00000000    
   1.7821011021904531       -7.3705035312486900E-002   0.00000000    
   1.8314814641518447       -2.9379372815279449E-002   0.00000000    
   1.8399189184445246        8.8012251756794044E-003   0.00000000    
   1.8137539360146455        4.1032197712477410E-002   0.00000000    
   1.7582980974592222        6.7480234600971800E-002   0.00000000    
   1.6796108537473762        8.8852489737517290E-002   0.00000000    
   1.5816395795375386       0.10585861782412943        0.00000000    
   1.4690662890509105       0.11918838944250656        0.00000000    
   1.3444915558156945       0.12955990805447204        0.00000000    
   1.2111857259967229       0.13748959171014624        0.00000000    
   1.0707343697209677       0.14354147274258408        0.00000000    
  0.92529238785208201       0.14805085180850389        0.00000000    
  0.77578348559994137       0.15141424800237821        0.00000000    
  0.62357544447827884       0.15382210761546913        0.00000000    
  0.46921500299438468       0.15553484655107336        0.00000000    
  0.31355166094963260       0.15663529750567312        0.00000000    
  0.15696809276001103       0.15728083888215019        0.00000000    
   0.0000000000000000       0.15747079701735006        0.00000000    
   0.0000000000000000       0.31084577759363829        0.00000000    
 -0.15334687826431154       0.31042978837693275        0.00000000    
 -0.30629172147681594       0.30929942726353676        0.00000000    
 -0.45855093726332874       0.30719113398062753        0.00000000    
 -0.60946836550329453       0.30407628814284782        0.00000000    
 -0.75874328993826257       0.29951748954740620        0.00000000    
 -0.90530389520418320       0.29331254806864909        0.00000000    
  -1.0486722629611924       0.28479427596636281        0.00000000    
  -1.1871470794022867       0.27353592414809558        0.00000000    
  -1.3198666360828535       0.25856470497639417        0.00000000    
  -1.4442125923583746       0.23916955035164683        0.00000000    
  -1.5586765230208599       0.21401327108470070        0.00000000    
  -1.6593694961631875       0.18207890726151196        0.00000000    
  -1.7438480638372138       0.14173000977576525        0.00000000    
  -1.8066317480049354        9.1771413007115721E-002   0.00000000    
  -1.8441498930919231        3.0696696498903289E-002   0.00000000    
  -1.8492980891081257       -4.2353716146364045E-002   0.00000000    
  -1.8175648276169374      -0.12732946148894203        0.00000000    
  -1.7410604845570674      -0.22339552547276303        0.00000000    
  -1.6154644111509335      -0.32481513164267145        0.00000000    
  -1.4355612413879040      -0.42679629860902929        0.00000000    
  -1.1994537937703083      -0.50901747109052764        0.00000000    
 -0.92460541111917138      -0.56297752735944684        0.00000000    
 -0.62024750423389774      -0.58047348647924124        0.00000000    
 -0.31893927261550931      -0.57456732666297394        0.00000000    
  -1.7550187898805587E-002 -0.57165179207642169        0.00000000    
  0.28164620742268964      -0.57421714374471722        0.00000000    
  0.58387835768888974      -0.58274216722349237        0.00000000    
  0.88879611484984644      -0.56797060097485941        0.00000000    
   1.1675401208815332      -0.51896688534682445        0.00000000    
   1.4099293114056501      -0.43889629131010882        0.00000000    
   1.5959916445093458      -0.33792260922889489        0.00000000    
   1.7285480374289488      -0.23574562317564204        0.00000000    
   1.8102321521555669      -0.13795542358188717        0.00000000    
   1.8469358061679653       -5.1213000516236423E-002   0.00000000    
   1.8452293056309499        2.3903899117881974E-002   0.00000000    
   1.8106555182716513        8.6668293562198490E-002   0.00000000    
   1.7496980930200421       0.13825740255582863        0.00000000    
   1.6666194175447677       0.17984124097195320        0.00000000    
   1.5665937931079001       0.21286676523447545        0.00000000    
   1.4525123698797278       0.23883495574864966        0.00000000    
   1.3280722114541645       0.25892823340763166        0.00000000    
   1.1950778283818699       0.27442147924953308        0.00000000    
   1.0560105953178622       0.28612817454186251        0.00000000    
  0.91193630695428307       0.29498042024261967        0.00000000    
  0.76445782530488637       0.30147206346903188        0.00000000    
  0.61419594273435452       0.30623421584162935        0.00000000    
  0.46215941496372220       0.30951970757896924        0.00000000    
  0.30874387429937716       0.31172931918721081        0.00000000    
  0.15457882982182561       0.31293542986758771        0.00000000    
   0.0000000000000000       0.31336312861381738        0.00000000    
   0.0000000000000000       0.46223995728233136        0.00000000    
 -0.14936811856398979       0.46175060551665792        0.00000000    
 -0.29844873823418383       0.46000407300618679        0.00000000    
 -0.44677920321711884       0.45707616900798664        0.00000000    
 -0.59413667843015416       0.45246615656771311        0.00000000    
 -0.73976188191226167       0.44602774904064707        0.00000000    
 -0.88337677672389670       0.43697778865169862        0.00000000    
  -1.0237708442700382       0.42489147068800909        0.00000000    
  -1.1604616721630576       0.40860437375875186        0.00000000    
  -1.2915745829951060       0.38732872288048342        0.00000000    
  -1.4162261507434148       0.35940305646894660        0.00000000    
  -1.5315822520616940       0.32359979695098023        0.00000000    
  -1.6361087010821505       0.27771180355483333        0.00000000    
  -1.7256374202115545       0.22010440028950332        0.00000000    
  -1.7977225267230963       0.14826581316856821        0.00000000    
  -1.8465086904671446        6.0506605173095390E-002   0.00000000    
  -1.8684753529406510       -4.5048766335988547E-002   0.00000000    
  -1.8557791222691586      -0.16906390345621039        0.00000000    
  -1.8039369263139393      -0.31000762252700192        0.00000000    
  -1.7026561185293947      -0.46507991577192698        0.00000000    
  -1.5473505032587223      -0.62174029952137333        0.00000000    
  -1.3256718766985485      -0.77185954434716986        0.00000000    
  -1.0311057873251812      -0.86954992613680981        0.00000000    
 -0.70241452878410482      -0.90695025311778055        0.00000000    
 -0.35211431030579443      -0.89969901013205966        0.00000000    
  -1.6283296436974088E-002 -0.88374020718146362        0.00000000    
  0.32057893662871706      -0.89818735703821406        0.00000000    
  0.66608179794085465      -0.90650696549746379        0.00000000    
  0.99546406989590630      -0.87850583182722608        0.00000000    
   1.2949952565882441      -0.78670684720909478        0.00000000    
   1.5228737017745759      -0.64142396516693911        0.00000000    
   1.6864080427356483      -0.48499160942903863        0.00000000    
   1.7932054401258730      -0.32803041329240162        0.00000000    
   1.8506811938686341      -0.18483050192816333        0.00000000    
   1.8673078532776806       -5.7668235597117090E-002   0.00000000    
   1.8487837950855255        5.0589692933032490E-002   0.00000000    
   1.8022105957321635       0.14112948645514567        0.00000000    
   1.7318621498376625       0.21510208081304297        0.00000000    
   1.6433018483771871       0.27463553964688975        0.00000000    
   1.5394374010875143       0.32196253828925570        0.00000000    
   1.4242458965639733       0.35901211044278725        0.00000000    
   1.2995629897490559       0.38787414395641762        0.00000000    
   1.1680761709162735       0.40995677060370683        0.00000000    
   1.0308819725056380       0.42685431466414930        0.00000000    
  0.88974262662720172       0.43946791436081334        0.00000000    
  0.74529807939669834       0.44890759823201143        0.00000000    
  0.59867928299798856       0.45567936004687037        0.00000000    
  0.45027757301784510       0.46051280112529130        0.00000000    
  0.30080724744020387       0.46362209188232273        0.00000000    
  0.15056311085225688       0.46545183823830599        0.00000000    
   0.0000000000000000       0.46598866091707380        0.00000000    
   0.0000000000000000       0.60899015138914958        0.00000000    
 -0.14385317879227538       0.60822170876596027        0.00000000    
 -0.28739335661806131       0.60615376725332848        0.00000000    
 -0.43042870166681463       0.60229228479177355        0.00000000    
 -0.57243956174921062       0.59661837608045010        0.00000000    
 -0.71327112609649168       0.58833229735588943        0.00000000    
 -0.85209557992973917       0.57711258898310958        0.00000000    
 -0.98869839967760098       0.56175355764848034        0.00000000    
  -1.1218071383800112       0.54154185339623695        0.00000000    
  -1.2510227570041033       0.51471977269620972        0.00000000    
  -1.3744280531450856       0.48006887054591046        0.00000000    
  -1.4912688327001400       0.43513086374347626        0.00000000    
  -1.5986764374307481       0.37811479051783198        0.00000000    
  -1.6953144422480968       0.30586813726825829        0.00000000    
  -1.7769193670849450       0.21619210754386903        0.00000000    
  -1.8413413750329739       0.10578848248351916        0.00000000    
  -1.8824549355623796       -2.7250420636340901E-002   0.00000000    
  -1.8971085882084244      -0.18490482718929258        0.00000000    
  -1.8761665770465188      -0.36695090590209417        0.00000000    
  -1.8155424851484190      -0.57004153208940866        0.00000000    
  -1.6995321050411563      -0.78809467857075877        0.00000000    
  -1.5256324484710679       -1.0010834484402218        0.00000000    
  -1.2600921998273447       -1.2004323600473650        0.00000000    
 -0.88116472800748458       -1.2836865495826941        0.00000000    
 -0.45927727381170341       -1.2951503863252458        0.00000000    
  -9.6106227239792577E-003  -1.2737864959612446        0.00000000    
  0.42995699405175869       -1.2845709180834586        0.00000000    
  0.84645885627348494       -1.2821281280019385        0.00000000    
   1.2245876642339646       -1.2103957492239130        0.00000000    
   1.4957087816348900       -1.0254692339189573        0.00000000    
   1.6806053407259547      -0.81543658272247821        0.00000000    
   1.8018844829406111      -0.59579247506011868        0.00000000    
   1.8686513367162871      -0.39079379881742182        0.00000000    
   1.8939314229480493      -0.20482295638649536        0.00000000    
   1.8831814156896602       -4.3552433281536143E-002   0.00000000    
   1.8445715644993996        9.3607799992786067E-002   0.00000000    
   1.7820530413081364       0.20720310194632846        0.00000000    
   1.7016060457460933       0.29982390677278287        0.00000000    
   1.6058033016204296       0.37427675927826853        0.00000000    
   1.4987717710935313       0.43321729647004620        0.00000000    
   1.3821125726285854       0.47960805525435168        0.00000000    
   1.2585567341350774       0.51551694444989882        0.00000000    
   1.1290537649880990       0.54330375809291842        0.00000000    
  0.99540149533331834       0.56435379523783979        0.00000000    
  0.85815762541857010       0.58035164958243513        0.00000000    
  0.71850153788328697       0.59212449777441589        0.00000000    
  0.57677406064553915       0.60080873414234082        0.00000000    
  0.43374088200649796       0.60681831564792299        0.00000000    
  0.28964725359067683       0.61088053135392262        0.00000000    
  0.14498587899182439       0.61309890995305061        0.00000000    
   0.0000000000000000       0.61389057904656430        0.00000000    
   0.0000000000000000       0.74927289819018195        0.00000000    
 -0.13675399281139716       0.74854613356880007        0.00000000    
 -0.27330990261241817       0.74592543007672374        0.00000000    
 -0.40932081607942278       0.74156688048511532        0.00000000    
 -0.54468420452476707       0.73471802891348093        0.00000000    
 -0.67884579947621693       0.72522580382339041        0.00000000    
 -0.81174403935554462       0.71194177622595989        0.00000000    
 -0.94254469622622739       0.69432784702687700        0.00000000    
  -1.0711635998880500       0.67069520637889213        0.00000000    
  -1.1963821849011655       0.64000062335448960        0.00000000    
  -1.3180081020350833       0.59981923315824759        0.00000000    
  -1.4342598693970443       0.54847304805307751        0.00000000    
  -1.5447044106205179       0.48262475215672701        0.00000000    
  -1.6466514864576047       0.39994325629014876        0.00000000    
  -1.7392177642201019       0.29628819111417304        0.00000000    
  -1.8181929905862517       0.16908963323547060        0.00000000    
  -1.8820816913599783        1.4450689905791630E-002   0.00000000    
  -1.9247320733241815      -0.16930190311101273        0.00000000    
  -1.9438295893088211      -0.38439832516897998        0.00000000    
  -1.9286945282676726      -0.62835326574910133        0.00000000    
  -1.8776170227108628      -0.89687083058920103        0.00000000    
  -1.7682176026072003       -1.1756063730799002        0.00000000    
  -1.6150201420943306       -1.4446471445815168        0.00000000    
  -1.3550515929445432       -1.6783677859991204        0.00000000    
 -0.95947181867416464       -1.7179363783954469        0.00000000    
  -7.8327695218485642E-003  -2.2523062041080215        0.00000000    
  0.94125931812690289       -1.6947109143841186        0.00000000    
   1.3184653144193401       -1.6656959901951565        0.00000000    
   1.5801897209078399       -1.4666811014984673        0.00000000    
   1.7493536389712423       -1.2094689170917974        0.00000000    
   1.8618566076340060      -0.92883642731881910        0.00000000    
   1.9186248594672672      -0.66044002449783801        0.00000000    
   1.9385239374311625      -0.41281218113175816        0.00000000    
   1.9240903396759792      -0.19365106253753134        0.00000000    
   1.8843002036704046       -4.1841838765827224E-003   0.00000000    
   1.8222780972462376       0.15487150821123544        0.00000000    
   1.7445201135367552       0.28621590062061852        0.00000000    
   1.6528043410639972       0.39297387614040874        0.00000000    
   1.5513665114687605       0.47836736362523263        0.00000000    
   1.4412547343453204       0.54626999977899249        0.00000000    
   1.3250662082773590       0.59940307647341329        0.00000000    
   1.2033697109366654       0.64097425906932259        0.00000000    
   1.0778342505776539       0.67288487297577215        0.00000000    
  0.94879005773374792       0.69746914285686012        0.00000000    
  0.81735529125477879       0.71591493835444020        0.00000000    
  0.68374437396065257       0.72982821383405316        0.00000000    
  0.54871469728598421       0.73986217199332749        0.00000000    
  0.41243413496005910       0.74707861876328185        0.00000000    
  0.27541144605417589       0.75173654555929825        0.00000000    
  0.13782058627096347       0.75449513013032132        0.00000000    
   0.0000000000000000       0.75530082413189115        0.00000000    
   0.0000000000000000       0.88189601698102849        0.00000000    
 -0.12818606465162380       0.88086307224075056        0.00000000    
 -0.25614486343685455       0.87812319999172672        0.00000000    
 -0.38377081438424060       0.87300597498334354        0.00000000    
 -0.51068961461038231       0.86556112308839539        0.00000000    
 -0.63689430484200082       0.85474899482939948        0.00000000    
 -0.76183661104565270       0.84025913130561480        0.00000000    
 -0.88558814423439902       0.82056268200342586        0.00000000    
  -1.0073948762952203       0.79488600712881863        0.00000000    
  -1.1273873431159460       0.76102087443395383        0.00000000    
  -1.2445494066265370       0.71758696272844302        0.00000000    
  -1.3590369777228697       0.66144465693529475        0.00000000    
  -1.4694179414807940       0.59047864826261964        0.00000000    
  -1.5757813005013681       0.50039979503432652        0.00000000    
  -1.6758260463415628       0.38844267598128029        0.00000000    
  -1.7693486470596025       0.24943297544289122        0.00000000    
  -1.8522055993328719        8.0853000756247656E-002   0.00000000    
  -1.9240091447282002      -0.12125028661412621        0.00000000    
  -1.9796614130053587      -0.35770015739040506        0.00000000    
  -2.0179581411834264      -0.63188976640600758        0.00000000    
  -2.0279301167441512      -0.93443985991138123        0.00000000    
  -2.0147927762061766       -1.2605741044182535        0.00000000    
  -1.9653952296526951       -1.5622744202885419        0.00000000    
  -1.9028509009357351       -1.8832533881821878        0.00000000    
  -2.2255434894917334       -1.5859379619009271        0.00000000    
  -1.3468462360879337E-002  -5.5480187099813749        0.00000000    
   2.2153078817894194       -1.5768667988789009        0.00000000    
   1.9002507053319599       -1.8456889255608764        0.00000000    
   1.9499263677434806       -1.5980882350099812        0.00000000    
   1.9973105198539349       -1.2946098537746511        0.00000000    
   2.0132220924090474      -0.97211003183524880        0.00000000    
   2.0087122344494968      -0.66942481387184705        0.00000000    
   1.9772341128237836      -0.39224834808088754        0.00000000    
   1.9253960311432481      -0.14794321616617068        0.00000000    
   1.8551865268675580        6.0107610045394610E-002   0.00000000    
   1.7735318651800915       0.23425648239010699        0.00000000    
   1.6806981682133937       0.37742260712753362        0.00000000    
   1.5812136156089691       0.49296749470213563        0.00000000    
   1.4752613852367975       0.58576380503848058        0.00000000    
   1.3651514434085141       0.65909527731078588        0.00000000    
   1.2508113212927110       0.71710644713125926        0.00000000    
   1.1335903368843232       0.76218837015542518        0.00000000    
   1.0134179812947750       0.79737857784268251        0.00000000    
  0.89121396227236327       0.82422364985244767        0.00000000    
  0.76696909624696497       0.84484006386645250        0.00000000    
  0.64135066695532661       0.86013243490513036        0.00000000    
  0.51440564032712266       0.87153265422727688        0.00000000    
  0.38661941142994827       0.87947492775078417        0.00000000    
  0.25809056473544323       0.88489177217335335        0.00000000    
  0.12916451929416020       0.88785680874006878        0.00000000    
   0.0000000000000000       0.88892425108750084        0.00000000    
   0.0000000000000000        1.0049997006054388        0.00000000    
 -0.11816156582945340        1.0041070190976913        0.00000000    
 -0.23617791118730663        1.0008543972770740        0.00000000    
 -0.35378383959716381       0.99550665705659458        0.00000000    
 -0.47095459683326102       0.98714999847548235        0.00000000    
 -0.58730710929683017       0.97571732213999374        0.00000000    
 -0.70294372530319982       0.95986972620195510        0.00000000    
 -0.81737484176849351       0.93913473676486614        0.00000000    
 -0.93084898914732228       0.91159483180262113        0.00000000    
  -1.0427930820060543       0.87624860944476157        0.00000000    
  -1.1536337033642707       0.83036191258051462        0.00000000    
  -1.2627243751630841       0.77224794998517177        0.00000000    
  -1.3706931511006522       0.69802509490050901        0.00000000    
  -1.4766897919820665       0.60521334830719864        0.00000000    
  -1.5814741907663816       0.48845826732302022        0.00000000    
  -1.6832836476448585       0.34474944170884098        0.00000000    
  -1.7826423261688651       0.16775216527501893        0.00000000    
  -1.8749131037637259       -4.4075128128594245E-002   0.00000000    
  -1.9614118445551603      -0.29272430682316192        0.00000000    
  -2.0412029995392076      -0.57877773379342290        0.00000000    
  -2.1105638877834809      -0.90821902873875393        0.00000000    
  -2.1613507517544144       -1.2491454121359424        0.00000000    
  -2.1968431881864197       -1.5876082227168304        0.00000000    
  -2.4122700195295601       -1.7050370830883990        0.00000000    
  -6.3064453404081906        2.4527136388442683        0.00000000    
  -3.7978698311598298       -14.307318023155416        0.00000000    
   2.4251083086198899       -1.2693247926016733        0.00000000    
   2.2904995608785024       -1.7035650074482052        0.00000000    
   2.1451623135935991       -1.6445505682755241        0.00000000    
   2.1351553020631591       -1.2855246610650135        0.00000000    
   2.0915332926016381      -0.95348478766011657        0.00000000    
   2.0350052943205656      -0.62701220178688777        0.00000000    
   1.9616952068667861      -0.32987275110379627        0.00000000    
   1.8761280810287246       -7.2913605609021534E-002   0.00000000    
   1.7852082963674443       0.14620728841123290        0.00000000    
   1.6862861381619250       0.32873362392972844        0.00000000    
   1.5850549928053363       0.47701030790009558        0.00000000    
   1.4807214721097430       0.59719786723945367        0.00000000    
   1.3752383306332767       0.69296880434106456        0.00000000    
   1.2676673912775878       0.76957115919989016        0.00000000    
   1.1588372265546183       0.82980085207414700        0.00000000    
   1.0481101515395839       0.87744202464189192        0.00000000    
  0.93605924088693748       0.91434818959326947        0.00000000    
  0.82235468300477865       0.94316261501084686        0.00000000    
  0.70748165453185508       0.96501899320264362        0.00000000    
  0.59131894997898604       0.98173463941654315        0.00000000    
  0.47427835630661658       0.99391607001395210        0.00000000    
  0.35637032616626624        1.0027857710035468        0.00000000    
  0.23792804789199001        1.0085520538880259        0.00000000    
  0.11905319986921811        1.0119974204902580        0.00000000    
   0.0000000000000000        1.0130013585004256        0.00000000    
   0.0000000000000000        1.1176851154499488        0.00000000    
 -0.10685850101380479        1.1164416710961458        0.00000000    
 -0.21351204246497649        1.1131896320885541        0.00000000    
 -0.31987205423576770        1.1071373624242535        0.00000000    
 -0.42563635814128836        1.0984543542515919        0.00000000    
 -0.53085400424567819        1.0859831249290544        0.00000000    
 -0.63515602317822839        1.0695425583552971        0.00000000    
 -0.73876411207299930        1.0475011099674016        0.00000000    
 -0.84129897801471476        1.0192374719255928        0.00000000    
 -0.94321297689863604       0.98246406105867468        0.00000000    
  -1.0442091374011269       0.93598324283397516        0.00000000    
  -1.1450506519902963       0.87655880611208015        0.00000000    
  -1.2456237536077781       0.80225611633732752        0.00000000    
  -1.3470681432069198       0.70842335734111583        0.00000000    
  -1.4493513406982650       0.59231585457587466        0.00000000    
  -1.5538877584811426       0.44723772910482595        0.00000000    