 <VTKFile type="UnstructuredGrid" version="0.1" byte_order="BigEndian">
 <UnstructuredGrid>
 <Piece NumberOfPoints="        2601 " NumberOfCells="        2500 ">
 <PointData Scalars="scalars">
 <DataArray type="Float32" NumberOfComponents="3" Name="Velocity" Format="ascii">
   0.0000000000000000        0.0000000000000000        0.00000000    
 -0.11185210053665524        0.0000000000000000        0.00000000    
 -0.22450332583160709        0.0000000000000000        0.00000000    
 -0.33901123881894529        0.0000000000000000        0.00000000    
 -0.45600259805838511        0.0000000000000000        0.00000000    
 -0.57692255498003808        0.0000000000000000        0.00000000    
 -0.70227564737898340        0.0000000000000000        0.00000000    
 -0.83408520211605675        0.0000000000000000        0.00000000    
 -0.97271905134474723        0.0000000000000000        0.00000000    
  -1.1210302309231337        0.0000000000000000        0.00000000    
  -1.2789900798126124        0.0000000000000000        0.00000000    
  -1.4504013452635227        0.0000000000000000        0.00000000    
  -1.6332869426754613        0.0000000000000000        0.00000000    
  -1.8310145511810736        0.0000000000000000        0.00000000    
  -2.0295487116844275        0.0000000000000000        0.00000000    
  -2.2298089157958985        0.0000000000000000        0.00000000    
  -2.3581094848710018        0.0000000000000000        0.00000000    
  -9.7942581271005302        0.0000000000000000        0.00000000    
  -15.972343836261324        0.0000000000000000        0.00000000    
  -12.108581723348653        0.0000000000000000        0.00000000    
  -11.583481057133168        0.0000000000000000        0.00000000    
  -10.283999166537257        0.0000000000000000        0.00000000    
  -8.4640317287287807        0.0000000000000000        0.00000000    
  -5.9068302559506378        0.0000000000000000        0.00000000    
  -1.5863770697402664        0.0000000000000000        0.00000000    
   4.0139813034159406        0.0000000000000000        0.00000000    
   9.1236799317149071        0.0000000000000000        0.00000000    
   15.730602317570746        0.0000000000000000        0.00000000    
   18.102737292531042        0.0000000000000000        0.00000000    
   19.709374940398906        0.0000000000000000        0.00000000    
   17.612873013128691        0.0000000000000000        0.00000000    
   12.215834287486182        0.0000000000000000        0.00000000    
   11.539613450746339        0.0000000000000000        0.00000000    
   5.1894624629864818        0.0000000000000000        0.00000000    
   2.3540202601471907        0.0000000000000000        0.00000000    
   2.2366789815565666        0.0000000000000000        0.00000000    
   2.0303807522428885        0.0000000000000000        0.00000000    
   1.8326367410072495        0.0000000000000000        0.00000000    
   1.6363351198567797        0.0000000000000000        0.00000000    
   1.4531176182865466        0.0000000000000000        0.00000000    
   1.2821579998680128        0.0000000000000000        0.00000000    
   1.1236078193844554        0.0000000000000000        0.00000000    
  0.97531453095203413        0.0000000000000000        0.00000000    
  0.83612825467492313        0.0000000000000000        0.00000000    
  0.70417930329504475        0.0000000000000000        0.00000000    
  0.57836159033725743        0.0000000000000000        0.00000000    
  0.45723721614243029        0.0000000000000000        0.00000000    
  0.33985985855232159        0.0000000000000000        0.00000000    
  0.22510874636086789        0.0000000000000000        0.00000000    
  0.11213206886259938        0.0000000000000000        0.00000000    
   0.0000000000000000        0.0000000000000000        0.00000000    
   0.0000000000000000       0.11086599247784693        0.00000000    
 -0.11032072540949170       0.11130683346583978        0.00000000    
 -0.22150147450910487       0.11252514092626331        0.00000000    
 -0.33419189010184991       0.11467318765135776        0.00000000    
 -0.44955037827479288       0.11767665975855772        0.00000000    
 -0.56806654864385286       0.12175946752968762        0.00000000    
 -0.69132797646706334       0.12685505268999303        0.00000000    
 -0.81966171081828731       0.13328823639583065        0.00000000    
 -0.95525859589436291       0.14094249790645166        0.00000000    
  -1.0981385971137472       0.15024868288884372        0.00000000    
  -1.2512334553635791       0.16080602424798132        0.00000000    
  -1.4135595466511177       0.17293133248800999        0.00000000    
  -1.5883364428056124       0.18473116107596829        0.00000000    
  -1.7701882438436960       0.19484824846535381        0.00000000    
  -1.9585886003770641       0.19208626856906710        0.00000000    
  -2.1223415864061823       0.17192692156941830        0.00000000    
  -2.2443960044668758        7.8428065564489530E-002   0.00000000    
  -5.9496960818599192        11.063020654063539        0.00000000    
  -9.1032108097559483       -1.7314202149550653        0.00000000    
  -10.514737110105763      -0.72081559552499197        0.00000000    
  -9.4583160190445685      -0.86070615970020148        0.00000000    
  -9.3243527135698976      -0.57273903429124795        0.00000000    
  -8.5010392200710019       -2.0705418949644776        0.00000000    
  -5.4335005603235196       -3.5541982354875423        0.00000000    
  -1.7942030190530691       -4.4055524899382581        0.00000000    
   2.8466275147062130       -5.8356364149103417        0.00000000    
   9.2228636765265328       -5.6502983731486909        0.00000000    
   13.392882110858039       -5.1266424449797627        0.00000000    
   18.782779621747370       -2.6353900388055553        0.00000000    
   18.317028232986708        1.4945037817456515        0.00000000    
   15.971303261682413        2.9477231188949138        0.00000000    
   12.961429749903765        5.4591891205504011        0.00000000    
   5.5505518674157415        2.6279096007363112        0.00000000    
   4.3833722170918792        4.8894210392959430        0.00000000    
   2.2543164435808025        7.5076937036340899E-002   0.00000000    
   2.1199701768561829       0.17661060827657274        0.00000000    
   1.9593324861696162       0.19032531172130471        0.00000000    
   1.7728524241446963       0.19389876153680968        0.00000000    
   1.5908560297727621       0.18439925398322915        0.00000000    
   1.4168398938145819       0.17283438354270331        0.00000000    
   1.2539414482034761       0.16102368048451349        0.00000000    
   1.1009961072518097       0.15047184094822821        0.00000000    
  0.95753691146901221       0.14128064326454631        0.00000000    
  0.82185865427537363       0.13358389020372721        0.00000000    
  0.69302837600569389       0.12719533944338188        0.00000000    
  0.56959392500786576       0.12205682450976819        0.00000000    
  0.45066506169877635       0.11799641299170048        0.00000000    
  0.33508720747870252       0.11495879881602640        0.00000000    
  0.22205126167837122       0.11282825917331221        0.00000000    
  0.11061538059678364       0.11158429940409369        0.00000000    
   0.0000000000000000       0.11116315005284241        0.00000000    
   0.0000000000000000       0.21885431426372540        0.00000000    
 -0.10593276966386722       0.21957200675085187        0.00000000    
 -0.21246034266239328       0.22196828973692337        0.00000000    
 -0.32040188956741655       0.22586200133599280        0.00000000    
 -0.43015088106436067       0.23159532574134023        0.00000000    
 -0.54280231131490198       0.23900840216402411        0.00000000    
 -0.65851810138614975       0.24858333594764132        0.00000000    
 -0.77872599632486761       0.26010158242562936        0.00000000    
 -0.90320449891582755       0.27420453954121077        0.00000000    
  -1.0337035205050140       0.29036566406014680        0.00000000    
  -1.1691342946038055       0.30921467542282927        0.00000000    
  -1.3112087653056796       0.32892324330005845        0.00000000    
  -1.4565401174652244       0.34884749857552222        0.00000000    
  -1.6049700443263057       0.36101363886247662        0.00000000    
  -1.7473567921915931       0.35670798256828390        0.00000000    
  -1.8677111860949362       0.29141258750040749        0.00000000    
  -1.9101407287887766       0.12342636038610112        0.00000000    
  -2.2969758414895704E-002   12.836151466261221        0.00000000    
  -1.2600350429727594       0.88602898741788516        0.00000000    
  -2.1560881829762706       -1.0306853555233366        0.00000000    
  -5.6038844590449557        1.8405387874171601        0.00000000    
  -7.8609011667009607       -1.1509305772045992        0.00000000    
  -6.4528903210868220       -3.7236746890622396        0.00000000    
  -5.2681719842417323       -6.1533224359511545        0.00000000    
  -1.9090446501415348       -8.8048531627595406        0.00000000    
   1.3684391881777525       -9.3546501121191366        0.00000000    
   4.8312530482472669       -11.970334695763231        0.00000000    
   11.935597543473895       -10.080969049856712        0.00000000    
   14.239288083137753       -5.3746514824371738        0.00000000    
   17.719800831369099        1.2190038679907931        0.00000000    
   12.826618628750763        10.462130208586789        0.00000000    
   5.9619072425820354        7.8193669309144127        0.00000000    
   4.6450335943538441        8.9954833230457290        0.00000000    
 -0.37172251224285802        4.7057830760616204        0.00000000    
   1.8888640973079414       0.12718406393949505        0.00000000    
   1.8623459880732995       0.28536785733018394        0.00000000    
   1.7505169343937850       0.35403480703130563        0.00000000    
   1.6075377311341477       0.35964853150915205        0.00000000    
   1.4600076203073560       0.34817598920702308        0.00000000    
   1.3139633208788515       0.32911808370325291        0.00000000    
   1.1721088182392005       0.30949292857216132        0.00000000    
   1.0360762234038812       0.29098052864516394        0.00000000    
  0.90555874122229041       0.27474863352947226        0.00000000    
  0.78057734169917170       0.26077555665312951        0.00000000    
  0.66024283580865584       0.24916845715167385        0.00000000    
  0.54410898642691108       0.23965200717860902        0.00000000    
  0.43127495395396376       0.23216412610241524        0.00000000    
  0.32117584385250336       0.22646805002440168        0.00000000    
  0.21301380080149684       0.22251699681380785        0.00000000    
  0.10618879478889867       0.22015644885533375        0.00000000    
   0.0000000000000000       0.21939517598482766        0.00000000    
   0.0000000000000000       0.32104430838314779        0.00000000    
  -9.8849640473283096E-002  0.32216442276610652        0.00000000    
 -0.19816165323988882       0.32521545948432268        0.00000000    
 -0.29819581858234451       0.33059054383359987        0.00000000    
 -0.39958909413782390       0.33800905029367001        0.00000000    
 -0.50233282883197317       0.34798984255390986        0.00000000    
 -0.60719958599666957       0.36018444279119938        0.00000000    
 -0.71374138579874824       0.37525017032038888        0.00000000    
 -0.82273568138928854       0.39252874982543107        0.00000000    
 -0.93287305555786704       0.41267784953121051        0.00000000    
  -1.0445152041453050       0.43397541263544903        0.00000000    
  -1.1545158269284888       0.45623759957002280        0.00000000    
  -1.2616333085751708       0.47398197610920589        0.00000000    
  -1.3594041874740461       0.48207996708630613        0.00000000    
  -1.4419505384852054       0.46057475321828856        0.00000000    
  -1.5088169602300625       0.37476663249625919        0.00000000    
  -1.5565394147368155       0.13022431258862191        0.00000000    
   2.4675782736017466        6.9180648553496900        0.00000000    
   9.3401481868628373        1.1686109716154454        0.00000000    
   3.0152982499389629        5.9076357393525427        0.00000000    
  -1.0644198539637211        2.4297320745047690        0.00000000    
  -2.6976861642601375        2.1501591557986082        0.00000000    
  -6.4669855899476554       -4.6634758399966394        0.00000000    
  -2.1172258505184751       -10.747999359174626        0.00000000    
 -0.23474892701906197       -9.4517804951128852        0.00000000    
  -1.2620223945201616       -10.957933148497814        0.00000000    
  -1.7147965692832099       -13.377091342635214        0.00000000    
   1.7419526449107365       -19.235306110351033        0.00000000    
   13.486488751912930       -10.268541066523095        0.00000000    
   9.5821955771685712        6.5366738806081006        0.00000000    
   7.3787928649514729        12.241045112925363        0.00000000    
  0.52601614525712737        19.757940134406638        0.00000000    
  -7.2363807885893809        6.1361807038172973        0.00000000    
   2.2356483513315455        3.1098126638533272        0.00000000    
   1.5708720220806014       0.12734419585666887        0.00000000    
   1.5173744005366547       0.36522345618926244        0.00000000    
   1.4453612489563072       0.45802141343019398        0.00000000    
   1.3635752171369946       0.48042716018645387        0.00000000    
   1.2645206753698279       0.47398201312145155        0.00000000    
   1.1575073715814770       0.45636966300300491        0.00000000    
   1.0468391671167501       0.43476405637444021        0.00000000    
  0.93520624879058178       0.41337491400177440        0.00000000    
  0.82458602671488479       0.39349195242774992        0.00000000    
  0.71551839280971274       0.37608127118059420        0.00000000    
  0.60858250587603646       0.36113313544597669        0.00000000    
  0.50358258416402968       0.34882109997554345        0.00000000    
  0.40050593588733269       0.33890571405268655        0.00000000    
  0.29893698327109242       0.33139452478934261        0.00000000    
  0.19861785131952248       0.32607169704899486        0.00000000    
   9.9095136715464008E-002  0.32294946923433143        0.00000000    
   0.0000000000000000       0.32188608710773398        0.00000000    
   0.0000000000000000       0.41528626223689014        0.00000000    
  -8.9588052478213845E-002  0.41636016186138042        0.00000000    
 -0.17926555691931217       0.42000923759427555        0.00000000    
 -0.26926430826714348       0.42582968241144553        0.00000000    
 -0.35942479993613469       0.43432367893781754        0.00000000    
 -0.45001432738985198       0.44500847605512678        0.00000000    
 -0.54044636614174968       0.45846460520409688        0.00000000    
 -0.63083497761337970       0.47390041917867753        0.00000000    
 -0.71980897779657915       0.49184679673839687        0.00000000    
 -0.80691423718651356       0.51060243617420442        0.00000000    
 -0.88927436528887271       0.53005310267976224        0.00000000    
 -0.96497811100357322       0.54586427802098980        0.00000000    
  -1.0284741883202235       0.55496885661907502        0.00000000    
  -1.0750202260938857       0.54541000324626765        0.00000000    
  -1.0970172261246389       0.50178806809771870        0.00000000    
  -1.0920319848827560       0.39543449811680043        0.00000000    
  -1.0726324797585931       0.13787939634806404        0.00000000    
  0.34607256753358528        1.4675870359255536        0.00000000    
  -1.1929737202090616        1.2855651676981257        0.00000000    
   13.260463648180831       -2.3379058862216522        0.00000000    
   9.8534173653140265        18.162038089028346        0.00000000    
  -7.2067767125426023        5.1113135313777702        0.00000000    
   2.4152672987171115       -13.477374798987965        0.00000000    
   5.9459028116362633       -9.8144956505529652        0.00000000    
   1.3429037675586861       -7.6647620810388775        0.00000000    
  -2.6923728791669692       -7.6824014463121308        0.00000000    
  -7.7191434271886754       -11.173078319961119        0.00000000    
  -14.914655514052715       -17.700556258280166        0.00000000    
  -9.6950335752465922       -28.767448962370789        0.00000000    
   15.173057201420725        4.0717841766489640        0.00000000    
  -9.6249600824352335        41.707354814941802        0.00000000    
  -23.103472062821471        10.622919134643064        0.00000000    
  0.62248748838789913      -0.69236091186749515        0.00000000    
 -0.80488531955832454        1.8936979498862030        0.00000000    
   1.0769071309959062       0.12644262765456571        0.00000000    
   1.1011389298625538       0.39539084706787103        0.00000000    
   1.1021364244732639       0.49886967951809158        0.00000000    
   1.0780748178106132       0.54542653257844520        0.00000000    
   1.0312800771946304       0.55483192310976093        0.00000000    
  0.96706939091361088       0.54674374308178353        0.00000000    
  0.89134832874611380       0.53077924292518708        0.00000000    
  0.80856978051154771       0.51177119400939985        0.00000000    
  0.72144262807523851       0.49284304692952041        0.00000000    
  0.63213885482178300       0.47510158383504830        0.00000000    
  0.54167749978180091       0.45951006476262557        0.00000000    
  0.45095911717145054       0.44616247497882516        0.00000000    
  0.36024920643161440       0.43535089806341970        0.00000000    
  0.26983602096808113       0.42693147885594163        0.00000000    
  0.17967853834244726       0.42101135755710822        0.00000000    
   8.9779305406604629E-002  0.41743175626366275        0.00000000    
   0.0000000000000000       0.41627824219799919        0.00000000    
   0.0000000000000000       0.49925973445805572        0.00000000    
  -7.8579154366386378E-002  0.50055389648233239        0.00000000    
 -0.15702546410133350       0.50393931714688012        0.00000000    
 -0.23503279205378097       0.50990568215663989        0.00000000    
 -0.31248587710129283       0.51786125590662513        0.00000000    
 -0.38872377136213943       0.52829832079840167        0.00000000    
 -0.46344252929840196       0.54032555714646280        0.00000000    
 -0.53533848518827853       0.55432403459533264        0.00000000    
 -0.60356254417393940       0.56862124048805340        0.00000000    
 -0.66567518302918049       0.58304589066722978        0.00000000    
 -0.71965665734317963       0.59395125060049692        0.00000000    
 -0.76121150761688128       0.59922472608614585        0.00000000    
 -0.78640340468210401       0.59029638293309805        0.00000000    
 -0.78880491806646980       0.55903002808771229        0.00000000    
 -0.76473052075926862       0.48609064597688484        0.00000000    
 -0.70557078300264842       0.34698694123639467        0.00000000    
 -0.65083850394192622       0.11219516903935017        0.00000000    
 -0.52821892767392498       -4.8053360330431838E-002   0.00000000    
   1.9380518098600483        1.8739811161630551        0.00000000    
  -5.1991352981756265       -10.242572092825625        0.00000000    
   7.6141435805775934        16.660471701659912        0.00000000    
   29.063378458110471        2.2238391212905597        0.00000000    
   19.452183987322655       -10.600749927474418        0.00000000    
   7.4246536161360588       -4.1942256616356737        0.00000000    
   2.1097191643931796       -3.3670985721371003        0.00000000    
  -2.2682258448482000       -3.5668432971427433        0.00000000    
  -7.9244003524002196       -4.6056914115024155        0.00000000    
  -17.524574706247130       -7.4722567239720785        0.00000000    
  -41.983386089916237       -19.756559049712759        0.00000000    
  -65.822547331166987       -5.9680352694269185        0.00000000    
  -29.248392723298981        39.971036939158758        0.00000000    
   5.1472738037001511       -8.5579175342326934        0.00000000    
  -1.1260628580831256        1.0358528698100602        0.00000000    
  0.53662689770747340       -6.9832777790661188E-002   0.00000000    
  0.64778186266686810        9.7025939814368939E-002   0.00000000    
  0.70424029976295122       0.34411729894103943        0.00000000    
  0.76699497432391117       0.48639105847130232        0.00000000    
  0.79045396124239875       0.55850777336627011        0.00000000    
  0.78782927357222710       0.59117011060586400        0.00000000    
  0.76262199820218779       0.59982351723390614        0.00000000    
  0.72085080654732248       0.59519172259310038        0.00000000    
  0.66690812325901228       0.58407994586167433        0.00000000    
  0.60459384586415321       0.56997572490603565        0.00000000    
  0.53636840921260887       0.55549811576092756        0.00000000    
  0.46427143905196144       0.54167185803496609        0.00000000    
  0.38949785991125074       0.52949264345499358        0.00000000    
  0.31306445162649998       0.51916404860940624        0.00000000    
  0.23551139235878671       0.51108457303868704        0.00000000    
  0.15732203689102822       0.50520510146530495        0.00000000    
   7.8740864703979785E-002  0.50171841747586821        0.00000000    
   0.0000000000000000       0.50051175109390988        0.00000000    
   0.0000000000000000       0.57198713022322845        0.00000000    
  -6.6469123378601364E-002  0.57287477845965840        0.00000000    
 -0.13246771895859791       0.57606334048201380        0.00000000    
 -0.19758017487352697       0.58090144268638388        0.00000000    
 -0.26109243977168428       0.58783084532006802        0.00000000    
 -0.32243818327131724       0.59591236914292400        0.00000000    
 -0.38042835623012861       0.60542043969452974        0.00000000    
 -0.43405792112585756       0.61475467283033158        0.00000000    
 -0.48134249347406383       0.62369923358442958        0.00000000    
 -0.52042092905533366       0.62915897200478410        0.00000000    
 -0.54815444391539137       0.62955315843449078        0.00000000    
 -0.56144627605829178       0.61846950066609985        0.00000000    
 -0.55613818830361028       0.59093541766113411        0.00000000    
 -0.52908439277563746       0.53373871121325867        0.00000000    
 -0.47772517739639986       0.43594835016222533        0.00000000    
 -0.41239002462907570       0.27263434652386531        0.00000000    
 -0.35469874240767052        7.4124202466606934E-002   0.00000000    
 -0.28590667178252294      -0.20139404065366528        0.00000000    
 -0.20330908316438440      -0.52154652966847448        0.00000000    
  -6.9705202236053213E-002 -0.84346121790290940        0.00000000    
  -2.2343872240645601       -3.3872360284961784        0.00000000    
  -2.3330279264720248       0.92095267754596788        0.00000000    
 -0.43180477627372943       -1.5878921609065293        0.00000000    
 -0.44711343851241475       -1.1642443928250945        0.00000000    
 -0.16059227112510560       -1.3686665544493888        0.00000000    
  -1.5824062320923954E-003  -1.3463401684528349        0.00000000    
  0.19106490058267039       -1.3626673373735745        0.00000000    
  0.37424705309708456       -1.2982885946883171        0.00000000    
  0.36135533586213980       -1.4588240760569309        0.00000000    
  0.70192492611743218      -0.76717858994615284        0.00000000    
  0.60826377827513423       -1.7103131993072034        0.00000000    
  0.13623573667340788      -0.80020588045798224        0.00000000    
  0.23427047370251333      -0.54655685727689929        0.00000000    
  0.29178026015722008      -0.20762259295366856        0.00000000    
  0.35360119295906223        6.1839857211800527E-002   0.00000000    
  0.40928502817996759       0.26716110922393455        0.00000000    
  0.47565588346527998       0.43422171833860301        0.00000000    
  0.52890610104665114       0.53396790899686541        0.00000000    
  0.55617100492214133       0.59106975876694889        0.00000000    
  0.56179330861238297       0.61950884075031398        0.00000000    
  0.54865159062869073       0.63041930871246710        0.00000000    
  0.52095029568894791       0.63049633796800530        0.00000000    
  0.48195781023508844       0.62486609564575779        0.00000000    
  0.43460748238597180       0.61618350951947432        0.00000000    
  0.38099807504998662       0.60669284177045912        0.00000000    
  0.32289890485833161       0.59734440904944730        0.00000000    
  0.26151806115846277       0.58912653499702794        0.00000000    
  0.19788186213625883       0.58231134493854275        0.00000000    
  0.13269310190388903       0.57735644526306829        0.00000000    
   6.6573664561550255E-002  0.57426768320503097        0.00000000    
   0.0000000000000000       0.57327701462779446        0.00000000    
   0.0000000000000000       0.63210368618361412        0.00000000    
  -5.3772826381813438E-002  0.63300017225719984        0.00000000    
 -0.10688388226499305       0.63504759814515332        0.00000000    
 -0.15855637864968880       0.63870213732038517        0.00000000    
 -0.20804920870982138       0.64303524564184789        0.00000000    
 -0.25427702592807605       0.64828152953654761        0.00000000    
 -0.29618986725791924       0.65295429358703183        0.00000000    
 -0.33218431010733557       0.65684482668048594        0.00000000    
 -0.36062587063053092       0.65733521260311611        0.00000000    
 -0.37923925328693664       0.65321481122127234        0.00000000    
 -0.38562059924105768       0.63961218002956766        0.00000000    
 -0.37713354959114292       0.61321526156147899        0.00000000    
 -0.35128312045604537       0.56503113987326581        0.00000000    
 -0.30737888266320496       0.48868495567771114        0.00000000    
 -0.24732647938768793       0.36959048704012176        0.00000000    
 -0.18347804105620255       0.20980861854436075        0.00000000    
 -0.10736873882907698        3.1493459946756812E-003   0.00000000    
  -4.0896017773698494E-002 -0.26568397586531473        0.00000000    
  -1.0252457950508508E-002 -0.57049774290085387        0.00000000    
  -2.8489546352576049E-002 -0.90987679719962244        0.00000000    
  -5.9490485525522087E-002  -1.1251375112716817        0.00000000    
  -6.2672621047250965E-002  -1.2393230017302239        0.00000000    
  -5.3620931529410339E-002  -1.3378913213595751        0.00000000    
  -5.4076007731160045E-002  -1.3984814939459882        0.00000000    
  -3.4618688184060858E-002  -1.4404079402629730        0.00000000    
   1.4808168604972834E-002  -1.4830355043215904        0.00000000    
   4.5666171266949482E-002  -1.4494773109855550        0.00000000    
   5.6475446194623441E-002  -1.4054700485180358        0.00000000    
   5.6206351940622283E-002  -1.3384818110590178        0.00000000    
   6.3350756160683044E-002  -1.2352348494190504        0.00000000    
   4.8963990056426397E-002  -1.1342090256650033        0.00000000    
   1.6408471822931120E-002 -0.87172649405572966        0.00000000    
   1.2583613648500637E-002 -0.56924612253548734        0.00000000    
   4.1234280708364629E-002 -0.27109378121270561        0.00000000    
  0.10794920968389557       -3.2248163096703325E-003   0.00000000    
  0.18065852827190393       0.20383262893295184        0.00000000    
  0.24491614836775119       0.36692172324594452        0.00000000    
  0.30539966508562882       0.48753416978711372        0.00000000    
  0.35039162759271059       0.56524663159180499        0.00000000    
  0.37654580545248190       0.61355548637256374        0.00000000    
  0.38541789351261152       0.64064229301143738        0.00000000    
  0.37922378963655085       0.65416875248210993        0.00000000    
  0.36073370356808609       0.65867625265160201        0.00000000    
  0.33239257923886695       0.65806480468932993        0.00000000    
  0.29640557550930247       0.65440795766374882        0.00000000    
  0.25452572009233859       0.64960831876220115        0.00000000    
  0.20825088980650802       0.64451829926754478        0.00000000    
  0.15874139223187450       0.64006527726233131        0.00000000    
  0.10700089963079058       0.63653176577028170        0.00000000    
   5.3840079286480408E-002  0.63437262038196640        0.00000000    
   0.0000000000000000       0.63358582129641516        0.00000000    
   0.0000000000000000       0.67986137151594406        0.00000000    
  -4.1064592009292154E-002  0.68007990531348239        0.00000000    
  -8.1270021513182855E-002  0.68128435047345426        0.00000000    
 -0.11975075584887668       0.68261861570997096        0.00000000    
 -0.15548839084341937       0.68434923230445355        0.00000000    
 -0.18743012031061643       0.68513708955687491        0.00000000    
 -0.21425325248198418       0.68483470706543015        0.00000000    
 -0.23453231549347117       0.68123791906044850        0.00000000    
 -0.24658253217385490       0.67343389742423976        0.00000000    
 -0.24851694245331263       0.65766391933343260        0.00000000    
 -0.23859229636550888       0.63161977178121487        0.00000000    
 -0.21486732391791818       0.58899564770968604        0.00000000    
 -0.17705026765378037       0.52558326832327351        0.00000000    
 -0.12499639524613738       0.43217471702448529        0.00000000    
  -6.4683691198600485E-002  0.30573561836765845        0.00000000    
   4.4697746995178700E-003  0.14066158298442702        0.00000000    