 <VTKFile type="UnstructuredGrid" version="0.1" byte_order="BigEndian">
 <UnstructuredGrid>
 <Piece NumberOfPoints="        2601 " NumberOfCells="        2500 ">
 <PointData Scalars="scalars">
 <DataArray type="Float32" NumberOfComponents="3" Name="Velocity" Format="ascii">
   0.0000000000000000        0.0000000000000000        0.00000000    
 -0.10726900504502193        0.0000000000000000        0.00000000    
 -0.21352468446009681        0.0000000000000000        0.00000000    
 -0.31743941819070459        0.0000000000000000        0.00000000    
 -0.41826928056447371        0.0000000000000000        0.00000000    
 -0.51431051091608537        0.0000000000000000        0.00000000    
 -0.60507575500760169        0.0000000000000000        0.00000000    
 -0.68842245571115546        0.0000000000000000        0.00000000    
 -0.76415709694436040        0.0000000000000000        0.00000000    
 -0.82965614109231556        0.0000000000000000        0.00000000    
 -0.88512968459722918        0.0000000000000000        0.00000000    
 -0.92747967644072649        0.0000000000000000        0.00000000    
 -0.95752371825616067        0.0000000000000000        0.00000000    
 -0.97177415598323591        0.0000000000000000        0.00000000    
 -0.97195642816980354        0.0000000000000000        0.00000000    
 -0.95436949316542419        0.0000000000000000        0.00000000    
 -0.92199141513193383        0.0000000000000000        0.00000000    
 -0.87114137686036763        0.0000000000000000        0.00000000    
 -0.80630291693402467        0.0000000000000000        0.00000000    
 -0.72401538250524444        0.0000000000000000        0.00000000    
 -0.63024559228963595        0.0000000000000000        0.00000000    
 -0.52183150807341894        0.0000000000000000        0.00000000    
 -0.40584295714303364        0.0000000000000000        0.00000000    
 -0.27939665773036071        0.0000000000000000        0.00000000    
 -0.15007683040505299        0.0000000000000000        0.00000000    
  -1.5288575681778589E-002   0.0000000000000000        0.00000000    
  0.11739164721390886        0.0000000000000000        0.00000000    
  0.25019280634820873        0.0000000000000000        0.00000000    
  0.37589134181775380        0.0000000000000000        0.00000000    
  0.49636876173146366        0.0000000000000000        0.00000000    
  0.60504526456388708        0.0000000000000000        0.00000000    
  0.70372089048371100        0.0000000000000000        0.00000000    
  0.78679123828092767        0.0000000000000000        0.00000000    
  0.85637051124492192        0.0000000000000000        0.00000000    
  0.90809695043454119        0.0000000000000000        0.00000000    
  0.94464027912953519        0.0000000000000000        0.00000000    
  0.96293193781483633        0.0000000000000000        0.00000000    
  0.96613819655724054        0.0000000000000000        0.00000000    
  0.95231143334512502        0.0000000000000000        0.00000000    
  0.92484194736931491        0.0000000000000000        0.00000000    
  0.88262935575408452        0.0000000000000000        0.00000000    
  0.82897659730728579        0.0000000000000000        0.00000000    
  0.76337768319659860        0.0000000000000000        0.00000000    
  0.68881554227419595        0.0000000000000000        0.00000000    
  0.60520395698439278        0.0000000000000000        0.00000000    
  0.51508283803048038        0.0000000000000000        0.00000000    
  0.41869309888543921        0.0000000000000000        0.00000000    
  0.31809836351888737        0.0000000000000000        0.00000000    
  0.21383774820849100        0.0000000000000000        0.00000000    
  0.10752111501270967        0.0000000000000000        0.00000000    
   0.0000000000000000        0.0000000000000000        0.00000000    
   0.0000000000000000       0.10758107998027605        0.00000000    
 -0.10731580601447982       0.10700373107970179        0.00000000    
 -0.21347849757229648       0.10541463989374181        0.00000000    
 -0.31762098625536095       0.10264258252033040        0.00000000    
 -0.41824805135414023        9.8814344952846453E-002   0.00000000    
 -0.51474673999290310        9.3725574037850728E-002   0.00000000    
 -0.60521389689320637        8.7506826954675584E-002   0.00000000    
 -0.68929863781097611        7.9924614666891061E-002   0.00000000    
 -0.76463192633919042        7.1143315095314560E-002   0.00000000    
 -0.83119280020158059        6.0916602915192700E-002   0.00000000    
 -0.88612070389113684        4.9484844280145358E-002   0.00000000    
 -0.92987635282076631        3.6620796493059271E-002   0.00000000    
 -0.95914526751651052        2.2692160019071390E-002   0.00000000    
 -0.97512349125215070        7.5365014436368860E-003   0.00000000    
 -0.97417070303386688       -8.3070174743160845E-003   0.00000000    
 -0.95855914952578392       -2.4891471038238785E-002   0.00000000    
 -0.92453894944114023       -4.1506807078774487E-002   0.00000000    
 -0.87579781781011989       -5.8084362823986442E-002   0.00000000    
 -0.80871771576798424       -7.3834199143293033E-002   0.00000000    
 -0.72856065642403500       -8.8610394629684647E-002   0.00000000    
 -0.63199582642688967      -0.10172422558179990        0.00000000    
 -0.52566016107828839      -0.11302552398332776        0.00000000    
 -0.40652358035561847      -0.12209960766840337        0.00000000    
 -0.28205581150297393      -0.12881446059726429        0.00000000    
 -0.14949639736157655      -0.13306478086808352        0.00000000    
  -1.6531706855124634E-002 -0.13468816436201042        0.00000000    
  0.11926947515261564      -0.13379324054004996        0.00000000    
  0.25043682966305281      -0.13017527310504573        0.00000000    
  0.37899464525158738      -0.12408107795168374        0.00000000    
  0.49797174186110893      -0.11537343857187383        0.00000000    
  0.60912463513561044      -0.10445595753374211        0.00000000    
  0.70629506009633647       -9.1390093347077997E-002   0.00000000    
  0.79136555768294126       -7.6750752035495348E-002   0.00000000    
  0.85932746612558786       -6.0790429371346801E-002   0.00000000    
  0.91256507087868488       -4.4173614570195217E-002   0.00000000    
  0.94739337623654130       -2.7198019482777898E-002   0.00000000    
  0.96678593963447623       -1.0486202599366244E-002   0.00000000    
  0.96829698689307309        5.7688965983261299E-003   0.00000000    
  0.95528106011709502        2.1073793390773660E-002   0.00000000    
  0.92627581571478024        3.5400936987397068E-002   0.00000000    
  0.88468874027472333        4.8398730068810923E-002   0.00000000    
  0.82975973954112392        6.0183029111716704E-002   0.00000000    
  0.76466457160584334        7.0511052935087123E-002   0.00000000    
  0.68912933399071563        7.9586325602654232E-002   0.00000000    
  0.60592375546462773        8.7230838213990997E-002   0.00000000    
  0.51513114520941139        9.3682890995428494E-002   0.00000000    
  0.41904585487897067        9.8792138480728181E-002   0.00000000    
  0.31805302200909263       0.10279542975607107        0.00000000    
  0.21397429007627283       0.10554391748774229        0.00000000    
  0.10749328663667612       0.10725371914808066        0.00000000    
   0.0000000000000000       0.10776068250182598        0.00000000    
   0.0000000000000000       0.21509627963408720        0.00000000    
 -0.10729517808937603       0.21409951553029835        0.00000000    
 -0.21361320611303608       0.21079957502494637        0.00000000    
 -0.31767216057992353       0.20545909053985817        0.00000000    
 -0.41875144671042425       0.19770418816269317        0.00000000    
 -0.51519867131209363       0.18778164406944764        0.00000000    
 -0.60653178664093998       0.17525102915208884        0.00000000    
 -0.69065828864181311       0.16039165538936906        0.00000000    
 -0.76736317361509288       0.14271444787395079        0.00000000    
 -0.83405920330769390       0.12260237369303913        0.00000000    
 -0.89089610926309137        9.9563883146625135E-002   0.00000000    
 -0.93478016013808085        7.4181457432940148E-002   0.00000000    
 -0.96641991501260760        4.6040168648579897E-002   0.00000000    
 -0.98228152752805331        1.6028329067211130E-002   0.00000000    
 -0.98394066843911654       -1.6092492406248420E-002   0.00000000    
 -0.96759595175626079       -4.9062266294993079E-002   0.00000000    
 -0.93608363212454160       -8.2868531539772403E-002   0.00000000    
 -0.88559739087534217      -0.11595001124071079        0.00000000    
 -0.82057883508884244      -0.14806720855683181        0.00000000    
 -0.73746819214020620      -0.17764508750600871        0.00000000    
 -0.64236335750837181      -0.20435919733628966        0.00000000    
 -0.53204881872057097      -0.22704075636232979        0.00000000    
 -0.41385762157195266      -0.24541215316268403        0.00000000    
 -0.28485846266201797      -0.25896884286251876        0.00000000    
 -0.15289216007605713      -0.26743611533227696        0.00000000    
  -1.5302846618819048E-002 -0.27087083385840077        0.00000000    
  0.12016389701643883      -0.26887849668876440        0.00000000    
  0.25573783078694062      -0.26183130523418097        0.00000000    
  0.38407087999001216      -0.24931591061620018        0.00000000    
  0.50692664047050873      -0.23197146299438109        0.00000000    
  0.61760727742774169      -0.20969146334488270        0.00000000    
  0.71775808675247466      -0.18347582181856001        0.00000000    
  0.80171258830034065      -0.15369002270021020        0.00000000    
  0.87153207616838113      -0.12163255501469060        0.00000000    
  0.92289678181367418       -8.7933799326742515E-002   0.00000000    
  0.95856126325259783       -5.3930621520619927E-002   0.00000000    
  0.97557281769164705       -2.0157718399763137E-002   0.00000000    
  0.97724630547434843        1.2255877359562815E-002   0.00000000    
  0.96175604227346168        4.3093002605401040E-002   0.00000000    
  0.93262011841036807        7.1522896040059944E-002   0.00000000    
  0.88882303419210407        9.7660930673723195E-002   0.00000000    
  0.83373789380227659       0.12093496963185812        0.00000000    
  0.76689935267832554       0.14169282147368231        0.00000000    
  0.69130643280932702       0.15953271454956336        0.00000000    
  0.60687980278122000       0.17491665782102553        0.00000000    
  0.51614002873557341       0.18752945569039417        0.00000000    
  0.41931358424092113       0.19785730861084075        0.00000000    
  0.31842726526915899       0.20560941146850226        0.00000000    
  0.21399297011361840       0.21124296286388813        0.00000000    
  0.10757847343777102       0.21445017388805174        0.00000000    
   0.0000000000000000       0.21563598783674698        0.00000000    
   0.0000000000000000       0.32274806523231708        0.00000000    
 -0.10731455324613359       0.32105746126797846        0.00000000    
 -0.21355841608401580       0.31640352014958756        0.00000000    
 -0.31792493885502210       0.30828062265313166        0.00000000    
 -0.41901744758241311       0.29705445090847193        0.00000000    
 -0.51625411661400611       0.28211527495656674        0.00000000    
 -0.60783708201703412       0.26383347899839416        0.00000000    
 -0.69340416695347229       0.24150279247961579        0.00000000    
 -0.77068027260723648       0.21558430141269844        0.00000000    
 -0.83956945127930693       0.18531772851779679        0.00000000    
 -0.89726306800482603       0.15137905100514651        0.00000000    
 -0.94405741717413516       0.11304468961713343        0.00000000    
 -0.97660725519185121        7.1366529359413650E-002   0.00000000    
 -0.99584294886854341        2.5799274546504190E-002   0.00000000    
 -0.99797858024649255       -2.2068665593316304E-002   0.00000000    
 -0.98496339337338901       -7.2445996666323148E-002   0.00000000    
 -0.95280297474873155      -0.12315753942118383        0.00000000    
 -0.90495076730632462      -0.17399945205375847        0.00000000    
 -0.83753684813707285      -0.22245024269550201        0.00000000    
 -0.75588757235674575      -0.26802197209953427        0.00000000    
 -0.65651508141527171      -0.30845963831168483        0.00000000    
 -0.54649383837607746      -0.34327609721747820        0.00000000    
 -0.42270877121018030      -0.37115307661738839        0.00000000    
 -0.29321919492041576      -0.39171665461128297        0.00000000    
 -0.15514363284625990      -0.40473016823879915        0.00000000    
  -1.6609870459464819E-002 -0.40969985679978022        0.00000000    
  0.12491284624998897      -0.40703893408722797        0.00000000    
  0.26168462576203722      -0.39601658112209981        0.00000000    
  0.39560016544579962      -0.37737922361034382        0.00000000    
  0.51943990579684196      -0.35060365083544381        0.00000000    
  0.63461817548008848      -0.31691818213974787        0.00000000    
  0.73477117297788130      -0.27655290984961256        0.00000000    
  0.82153353427158671      -0.23132979750649341        0.00000000    
  0.88988351614618200      -0.18216224995408317        0.00000000    
  0.94226422303773494      -0.13114951692033977        0.00000000    
  0.97518327330651267       -7.9298435637364259E-002   0.00000000    
  0.99189560112914488       -2.8513786541259030E-002   0.00000000    
  0.99021925150991574        2.0614807335369224E-002   0.00000000    
  0.97381058420574551        6.6633003137663765E-002   0.00000000    
  0.94141904344882221       0.10951036012602554        0.00000000    
  0.89665048546395087       0.14823910879347701        0.00000000    
  0.83886382078026223       0.18322859658425475        0.00000000    
  0.77131087564162959       0.21379068078603436        0.00000000    
  0.69375742081580627       0.24058122993107947        0.00000000    
  0.60895948346869089       0.26309270981648925        0.00000000    
  0.51698766389922013       0.28206499730949436        0.00000000    
  0.42007305442784781       0.29706282095912689        0.00000000    
  0.31855681287354076       0.30880645964612219        0.00000000    
  0.21417800221458147       0.31685902050174430        0.00000000    
  0.10755705310297055       0.32186956203787132        0.00000000    
   0.0000000000000000       0.32335212622826531        0.00000000    
   0.0000000000000000       0.43010604000346608        0.00000000    
 -0.10717079217518623       0.42818483191877671        0.00000000    
 -0.21347197213592847       0.42182119229751258        0.00000000    
 -0.31775820437437868       0.41151570551582023        0.00000000    
 -0.41937994020108238       0.39653361259944320        0.00000000    
 -0.51684174717701037       0.37733458927481128        0.00000000    
 -0.60968303633335819       0.35303841923854684        0.00000000    
 -0.69597113449460934       0.32415303533939854        0.00000000    
 -0.77543837614297340       0.28967740585350488        0.00000000    
 -0.84562610364886936       0.25030153025777080        0.00000000    
 -0.90651952988746942       0.20498229222717487        0.00000000    
 -0.95506704990184499       0.15478331758219033        0.00000000    
 -0.99166079968660459        9.8771489194121181E-002   0.00000000    
  -1.0126555549318239        3.8624763637707678E-002   0.00000000    
  -1.0191565764360293       -2.6257501805680050E-002   0.00000000    
  -1.0070598274473856       -9.3369096311103655E-002   0.00000000    
 -0.97869616238746604      -0.16275852346489450        0.00000000    
 -0.92983281457786593      -0.23111402325686575        0.00000000    
 -0.86467846579124874      -0.29790393945274662        0.00000000    
 -0.77931552059818132      -0.35958049630995403        0.00000000    
 -0.68021839926500860      -0.41537072638089756        0.00000000    
 -0.56400470648992473      -0.46259994495635742        0.00000000    
 -0.43892161698020543      -0.50069738555950427        0.00000000    
 -0.30190379420154556      -0.52867974473108081        0.00000000    
 -0.16168046410904183      -0.54606597029127713        0.00000000    
  -1.5363285377151511E-002 -0.55321499585932554        0.00000000    
  0.12879553922649892      -0.54920533634644986        0.00000000    
  0.27304622798017603      -0.53487264712198601        0.00000000    
  0.40968227223714171      -0.50907474155670007        0.00000000    
  0.53999857695154374      -0.47306417794815037        0.00000000    
  0.65690659940190088      -0.42654394716583643        0.00000000    
  0.76146986431669905      -0.37164340723012435        0.00000000    
  0.84783964578984594      -0.30937144289757013        0.00000000    
  0.91794310879059704      -0.24257404943286545        0.00000000    
  0.96765931183817933      -0.17283462738488842        0.00000000    
   1.0001025799658325      -0.10297564356432884        0.00000000    
   1.0127322073246949       -3.4178533799397906E-002   0.00000000    
   1.0093772996927362        3.1310811849013583E-002   0.00000000    
  0.98859198696325379        9.3130978654666866E-002   0.00000000    
  0.95428460024240480       0.14971131209050709        0.00000000    
  0.90567721720473537       0.20141409784913128        0.00000000    
  0.84633057611711038       0.24718691330303133        0.00000000    
  0.77588009184955065       0.28783579347163174        0.00000000    
  0.69734783349076812       0.32262183043262560        0.00000000    
  0.61066135890889850       0.35253652124267809        0.00000000    
  0.51826590724463129       0.37698845711902013        0.00000000    
  0.42033895841767888       0.39698091944722730        0.00000000    
  0.31878816332506366       0.41195539780637747        0.00000000    
  0.21404326373009386       0.42283379259525772        0.00000000    
  0.10754327248778939       0.42901573029917145        0.00000000    
   0.0000000000000000       0.43130628355809464        0.00000000    
   0.0000000000000000       0.53752696607389427        0.00000000    
 -0.10691133880271703       0.53484603682657805        0.00000000    
 -0.21291402908926035       0.52746385763799930        0.00000000    
 -0.31732108964507227       0.51456633296924326        0.00000000    
 -0.41893361787432842       0.49671724920366589        0.00000000    
 -0.51723724161026152       0.47291638338140762        0.00000000    
 -0.61065503432417412       0.44371570700459390        0.00000000    
 -0.69881853166330010       0.40792734307197942        0.00000000    
 -0.77966787465837850       0.36621968276746780        0.00000000    
 -0.85298672482823401       0.31726583101707845        0.00000000    
 -0.91611996954821140       0.26204466243028862        0.00000000    
 -0.96906985831191128       0.19921835615391562        0.00000000    
  -1.0084947676883129       0.13035510978816756        0.00000000    
  -1.0348006146318747        5.4341745228429036E-002   0.00000000    
  -1.0439545632746112       -2.6319513244067689E-002   0.00000000    
  -1.0371723165997355      -0.11218608054103167        0.00000000    
  -1.0099280094180958      -0.19954951147035588        0.00000000    
 -0.96498764854800656      -0.28812674393665849        0.00000000    
 -0.89783689465816396      -0.37319632144249804        0.00000000    
 -0.81373565453331154      -0.45375229964440128        0.00000000    
 -0.70878415476950929      -0.52524754413584263        0.00000000    
 -0.59104378703884464      -0.58667718771404487        0.00000000    
 -0.45726330541582400      -0.63548371392644520        0.00000000    
 -0.31701788865876335      -0.67115665590717466        0.00000000    
 -0.16715181447361888      -0.69367846338439476        0.00000000    
  -1.6808581413836093E-002 -0.70226291456539092        0.00000000    
  0.13687030179218451      -0.69799512544154452        0.00000000    
  0.28567590990713021      -0.67913915490295518        0.00000000    
  0.43112397856050205      -0.64689234667774986        0.00000000    
  0.56545681893733490      -0.59989571792545504        0.00000000    
  0.68907565138370652      -0.54023926207736994        0.00000000    
  0.79514355319276731      -0.46857925904904124        0.00000000    
  0.88470868828776417      -0.38837050763951053        0.00000000    
  0.95283814447834769      -0.30180790388818418        0.00000000    
   1.0022956904087368      -0.21277452190096910        0.00000000    
   1.0301447474296301      -0.12332807420197309        0.00000000    
   1.0404047423698435       -3.6715725455027527E-002   0.00000000    
   1.0314908216175831        4.6116831884462951E-002   0.00000000    
   1.0077214120040310       0.12287968096726869        0.00000000    
  0.96824782985061519       0.19374357864855293        0.00000000    
  0.91703819426725763       0.25719884991635023        0.00000000    
  0.85364252580612088       0.31414447078172530        0.00000000    
  0.78140922547613489       0.36356202059396431        0.00000000    
  0.70014765762408460       0.40668942951902004        0.00000000    
  0.61254314493639506       0.44275990942859089        0.00000000    
  0.51862331674664308       0.47308034878573951        0.00000000    
  0.42046824662737231       0.49697104672877096        0.00000000    
  0.31832697199714693       0.51565734024698651        0.00000000    
  0.21376390232582812       0.52843981942228702        0.00000000    
  0.10727563318052169       0.53639796385974681        0.00000000    
   0.0000000000000000       0.53874295566650066        0.00000000    
   0.0000000000000000       0.64414824645978153        0.00000000    
 -0.10630794809793873       0.64144404334204730        0.00000000    
 -0.21191978056062252       0.63248037387163558        0.00000000    
 -0.31591324361020817       0.61795034034253016        0.00000000    
 -0.41775787558031657       0.59679040202879108        0.00000000    
 -0.51622515711879569       0.56961413583305853        0.00000000    
 -0.61090524923942768       0.53511583938568541        0.00000000    
 -0.70015838139887854       0.49394384019269050        0.00000000    
 -0.78366589255052710       0.44456003979080483        0.00000000    
 -0.85924415363495243       0.38782258525214081        0.00000000    
 -0.92666333983560156       0.32204033911226415        0.00000000    
 -0.98304335442525004       0.24855258283033230        0.00000000    
  -1.0283065285681376       0.16570896662651102        0.00000000    
  -1.0587404544439620        7.5727661215468617E-002   0.00000000    
  -1.0746431299501873       -2.2648805087640229E-002   0.00000000    
  -1.0714536120791645      -0.12582855323639039        0.00000000    
  -1.0504166216378643      -0.23418833640440090        0.00000000    
  -1.0064341232266614      -0.34241077827598254        0.00000000    
 -0.94285840566956292      -0.44963875855751601        0.00000000    
 -0.85487998647769448      -0.54938952183728296        0.00000000    
 -0.74938888415603444      -0.64005292403666980        0.00000000    
 -0.62264490500426295      -0.71635615468606040        0.00000000    
 -0.48491960242782373      -0.77731053116281257        0.00000000    
 -0.33301241423627043      -0.82148244360926526        0.00000000    
 -0.17771128089919064      -0.84851988321386762        0.00000000    
  -1.5527606962984277E-002 -0.85994840172148534        0.00000000    
  0.14447616586545006      -0.85399229432932833        0.00000000    
  0.30467198969192738      -0.83214341794625180        0.00000000    
  0.45682866187161314      -0.79149282447667313        0.00000000    
  0.60088161118046557      -0.73368102980228767        0.00000000    
  0.72890534922973416      -0.65809652070478042        0.00000000    
  0.84052816716537959      -0.56841272015708100        0.00000000    
  0.92968333678633608      -0.46725735125525575        0.00000000    
  0.99832209962422835      -0.35968927929250488        0.00000000    
   1.0430000048059225      -0.24902859761566493        0.00000000    
   1.0678854296673563      -0.13980848036213159        0.00000000    
   1.0713274655153535       -3.3937350089055469E-002   0.00000000    
   1.0582085285145304        6.5371314278074341E-002   0.00000000    
   1.0277097894418190       0.15789334725491594        0.00000000    
  0.98436199878166553       0.24155128518000796        0.00000000    
  0.92769921576676484       0.31726356197910327        0.00000000    
  0.86149654686698873       0.38367809608447412        0.00000000    
  0.78548305794891826       0.44227518453614800        0.00000000    
  0.70263210057192893       0.49208879080955442        0.00000000    
  0.61284168090355295       0.53475548049189059        0.00000000    
  0.51837738344530471       0.56946890337324030        0.00000000    
  0.41932153954862567       0.59779340615585164        0.00000000    
  0.31735853609173625       0.61893925890897183        0.00000000    
  0.21278338078635178       0.63429612573647509        0.00000000    
  0.10681536261516407       0.64299794486317119        0.00000000    
   0.0000000000000000       0.64623397045905739        0.00000000    
   0.0000000000000000       0.75036123119078346        0.00000000    
 -0.10534880583536115       0.74688781254459968        0.00000000    
 -0.21002027767915954       0.73731990897678490        0.00000000    
 -0.31349910025187938       0.72058309085897176        0.00000000    
 -0.41487813603267115       0.69738131926544511        0.00000000    
 -0.51375090341435492       0.66636326751486741        0.00000000    
 -0.60888776405534539       0.62818366046869334        0.00000000    
 -0.69994427258008041       0.58118565979115333        0.00000000    
 -0.78523922230865728       0.52612068107679444        0.00000000    
 -0.86444677329164021       0.46104775602979059        0.00000000    
 -0.93525910670512369       0.38704668795404829        0.00000000    
 -0.99734189068592949       0.30200903255413653        0.00000000    
  -1.0475430468071392       0.20771684717322231        0.00000000    
  -1.0855650749668926       0.10217573469833222        0.00000000    
  -1.1071992454249533       -1.1560032598647707E-002   0.00000000    
  -1.1124570825046349      -0.13484900652389059        0.00000000    
  -1.0960316883876084      -0.26263026766649267        0.00000000    
  -1.0590894100710391      -0.39489362374999021        0.00000000    
 -0.99574346307480222      -0.52407757762697293        0.00000000    
 -0.91028576492668078      -0.64838682011724658        0.00000000    
 -0.79768579949370921      -0.75914669350042396        0.00000000    
 -0.66754941548360902      -0.85414274839457172        0.00000000    
 -0.51650286024281722      -0.92829579525976602        0.00000000    
 -0.35767949937950061      -0.98122772857828255        0.00000000    
 -0.18751281972890493       -1.0142424112202206        0.00000000    
  -1.7223049622547091E-002  -1.0266993177691268        0.00000000    
  0.15706032900348699       -1.0215285297237238        0.00000000    
  0.32676703172751387      -0.99450970911367331        0.00000000    
  0.49228222310531533      -0.94679839685463019        0.00000000    
  0.64480395235366683      -0.87495013599231419        0.00000000    
  0.78195543963943148      -0.78200263983838103        0.00000000    
  0.89605878462549449      -0.67023276395511711        0.00000000    
  0.98730888433832953      -0.54584257678056824        0.00000000    
   1.0514899518240102      -0.41392388409964981        0.00000000    
   1.0927286695187348      -0.28071061567560063        0.00000000    
   1.1094054504147235      -0.14968866806736389        0.00000000    
   1.1071884884376033       -2.5282236246525040E-002   0.00000000    
   1.0854401401056966        9.1583485761694283E-002   0.00000000    
   1.0494909417204994       0.19812911323621302        0.00000000    
  0.99895885698682640       0.29519539458711147        0.00000000    
  0.93820076427235433       0.38104032830724144        0.00000000    
  0.86691603676374152       0.45738872616041787        0.00000000    
  0.78844293036300594       0.52305114978377976        0.00000000    
  0.70257430483008210       0.58003240846860427        0.00000000    
  0.61178613500531764       0.62739045232969559        0.00000000    
  0.51600989251513407       0.66707447148166865        0.00000000    
  0.41704690061318528       0.69820667384874902        0.00000000    
  0.31500682366293364       0.72252907162201796        0.00000000    
  0.21117572811170282       0.73911256388175595        0.00000000    
  0.10587677708412387       0.74944847591643393        0.00000000    
   0.0000000000000000       0.75247557910582563        0.00000000    
   0.0000000000000000       0.85484520755220383        0.00000000    
 -0.10380529949931849       0.85155794151863029        0.00000000    
 -0.20713812940935533       0.84065408175625622        0.00000000    
 -0.30937030026625595       0.82295991151100156        0.00000000    
 -0.41013052859192728       0.79714376271842746        0.00000000    
 -0.50856150916922771       0.76390457202387896        0.00000000    
 -0.60434347931011356       0.72156118673896141        0.00000000    
 -0.69628165843297840       0.67080282117265944        0.00000000    
 -0.78405012177854050       0.60956693276564256        0.00000000    
 -0.86595379047905685       0.53871272402982950        0.00000000    
 -0.94158678744392832       0.45582705032733933        0.00000000    
  -1.0085159915180757       0.36224065824245383        0.00000000    
  -1.0661793432039530       0.25534972928566990        0.00000000    
  -1.1110864537635099       0.13747199131317264        0.00000000    
  -1.1425208698139315        6.2122972873265934E-003   0.00000000    
  -1.1555918451841274      -0.13429252395064709        0.00000000    