 <VTKFile type="UnstructuredGrid" version="0.1" byte_order="BigEndian">
 <UnstructuredGrid>
 <Piece NumberOfPoints="        2601 " NumberOfCells="        2500 ">
 <PointData Scalars="scalars">
 <DataArray type="Float32" NumberOfComponents="3" Name="Velocity" Format="ascii">
   0.0000000000000000        0.0000000000000000        0.00000000    
 -0.13624949727954977        0.0000000000000000        0.00000000    
 -0.27325990954873125        0.0000000000000000        0.00000000    
 -0.41200336207658811        0.0000000000000000        0.00000000    
 -0.55306130167852874        0.0000000000000000        0.00000000    
 -0.69768439758255396        0.0000000000000000        0.00000000    
 -0.84624722646357431        0.0000000000000000        0.00000000    
  -1.0003643730351461        0.0000000000000000        0.00000000    
  -1.1600483917517073        0.0000000000000000        0.00000000    
  -1.3273200001364127        0.0000000000000000        0.00000000    
  -1.5013413307851953        0.0000000000000000        0.00000000    
  -1.6842637483343770        0.0000000000000000        0.00000000    
  -1.8729775660092518        0.0000000000000000        0.00000000    
  -2.0679776832958945        0.0000000000000000        0.00000000    
  -2.2603850475926390        0.0000000000000000        0.00000000    
  -2.4412365989130658        0.0000000000000000        0.00000000    
  -2.6083131322885995        0.0000000000000000        0.00000000    
  -2.7490747546718395        0.0000000000000000        0.00000000    
  -2.8519320033094178        0.0000000000000000        0.00000000    
  -2.9257044457428378        0.0000000000000000        0.00000000    
  -3.4106750715395426        0.0000000000000000        0.00000000    
  -3.1490844462242533        0.0000000000000000        0.00000000    
  -4.7061392851567705        0.0000000000000000        0.00000000    
  0.76970359867758587        0.0000000000000000        0.00000000    
   1.6815876040136899        0.0000000000000000        0.00000000    
   5.5211764643611509        0.0000000000000000        0.00000000    
   6.9152592425213939        0.0000000000000000        0.00000000    
   7.7925715640921807        0.0000000000000000        0.00000000    
   9.4041960742091995        0.0000000000000000        0.00000000    
   1.9022725711353776        0.0000000000000000        0.00000000    
   2.9401716488668752        0.0000000000000000        0.00000000    
   2.9111144965661606        0.0000000000000000        0.00000000    
   2.8384836415151544        0.0000000000000000        0.00000000    
   2.7322416417134532        0.0000000000000000        0.00000000    
   2.5989610877143869        0.0000000000000000        0.00000000    
   2.4329265551024704        0.0000000000000000        0.00000000    
   2.2527076897021616        0.0000000000000000        0.00000000    
   2.0620765083111912        0.0000000000000000        0.00000000    
   1.8680432726549010        0.0000000000000000        0.00000000    
   1.6799838778681286        0.0000000000000000        0.00000000    
   1.4976382970440267        0.0000000000000000        0.00000000    
   1.3239794262820221        0.0000000000000000        0.00000000    
   1.1571572881849221        0.0000000000000000        0.00000000    
  0.99779668512350639        0.0000000000000000        0.00000000    
  0.84409003537749949        0.0000000000000000        0.00000000    
  0.69585950668050034        0.0000000000000000        0.00000000    
  0.55162705874097273        0.0000000000000000        0.00000000    
  0.41091273629927860        0.0000000000000000        0.00000000    
  0.27254443649819116        0.0000000000000000        0.00000000    
  0.13588684504551840        0.0000000000000000        0.00000000    
   0.0000000000000000        0.0000000000000000        0.00000000    
   0.0000000000000000       0.13522528354231117        0.00000000    
 -0.13461807788422853       0.13564229161926500        0.00000000    
 -0.27005021544199798       0.13680025820548444        0.00000000    
 -0.40692299155069389       0.13881597042886842        0.00000000    
 -0.54627979845186792       0.14159877607204790        0.00000000    
 -0.68855832556140473       0.14530284693932008        0.00000000    
 -0.83509855091314877       0.14980020729125451        0.00000000    
 -0.98606498490089312       0.15528337326588051        0.00000000    
  -1.1431580849059040       0.16149374545351816        0.00000000    
  -1.3059908800957800       0.16861065811891054        0.00000000    
  -1.4765759328741053       0.17599572530606006        0.00000000    
  -1.6531898895353692       0.18354064890229393        0.00000000    
  -1.8375637030134380       0.18954698224859387        0.00000000    
  -2.0245442905502866       0.19243372257293959        0.00000000    
  -2.2128266465658939       0.18825599773754792        0.00000000    
  -2.3901190761846798       0.16988798320002205        0.00000000    
  -2.5418321216331186       0.14890159562255667        0.00000000    
  -2.6734307663364101       0.12345867146297161        0.00000000    
  -2.7746005511706562        8.0568362008271055E-002   0.00000000    
  -2.8253424975658978        4.3946026820290092E-002   0.00000000    
  -4.6540669245149715        2.2697490259256101        0.00000000    
  -6.6271077245904797      -0.55829885106595678        0.00000000    
  -1.1094000962421040       -3.4023539382535692        0.00000000    
 -0.75066885956187834       -2.4322201821619518        0.00000000    
   3.3377798716357843       -2.5681125542758512        0.00000000    
   4.1115897335877625       -2.0452861679251186        0.00000000    
   7.2139633463190549       -2.4511702228718018        0.00000000    
   8.8719028893688971       -8.4081641649976321E-002   0.00000000    
   7.4778351353887977      -0.13347511439440701        0.00000000    
   9.7778877536781241        5.3353459992811496        0.00000000    
   3.1037753760004412       0.30086730075866075        0.00000000    
   2.7991972594897399        3.2767968052795450E-002   0.00000000    
   2.7578480932548377        8.1212053232988232E-002   0.00000000    
   2.6655411267928888       0.11733691303007213        0.00000000    
   2.5326148745049757       0.14886989325590264        0.00000000    
   2.3810732370355625       0.16870627682403697        0.00000000    
   2.2061602597493888       0.18642556586081832        0.00000000    
   2.0189562628397923       0.19140961243789395        0.00000000    
   1.8328004955077148       0.18877939054853737        0.00000000    
   1.6490717349248949       0.18300876481901079        0.00000000    
   1.4728507250838769       0.17555782584403942        0.00000000    
   1.3027395463107587       0.16821222368896147        0.00000000    
   1.1402270389407101       0.16112242177605626        0.00000000    
  0.98355549792748043       0.15490972229642955        0.00000000    
  0.83291426563779214       0.14943815973710492        0.00000000    
  0.68677212941543009       0.14493450518007969        0.00000000    
  0.54483103854345172       0.14123903362925008        0.00000000    
  0.40585482102064363       0.13845150633306905        0.00000000    
  0.26932870956448934       0.13644290492198879        0.00000000    
  0.13426280112814507       0.13528059496484054        0.00000000    
   0.0000000000000000       0.13486905120663564        0.00000000    
   0.0000000000000000       0.26734603524869127        0.00000000    
 -0.12990167928721105       0.26804129708211333        0.00000000    
 -0.26039437571391655       0.27032608672490122        0.00000000    
 -0.39225331647434680       0.27402185877636792        0.00000000    
 -0.52588385679279481       0.27938023494196407        0.00000000    
 -0.66227155985588171       0.28618761823982153        0.00000000    
 -0.80157920042809194       0.29476330191250982        0.00000000    
 -0.94503438502357640       0.30474189722565642        0.00000000    
  -1.0923845078508090       0.31647844432380706        0.00000000    
  -1.2450954660158851       0.32916971260139455        0.00000000    
  -1.4020676349337375       0.34299389251761470        0.00000000    
  -1.5648702887454555       0.35595909216158250        0.00000000    
  -1.7305386599654418       0.36717072368530490        0.00000000    
  -1.9003532212508742       0.37160512995645922        0.00000000    
  -2.0670469234630788       0.36406064857997145        0.00000000    
  -2.2313736237996413       0.33570246231112721        0.00000000    
  -2.3666652301749145       0.27009176833369136        0.00000000    
  -2.4523766627388355       0.21957857601793063        0.00000000    
  -2.5004724392664661       0.13371401881460457        0.00000000    
  -2.7024702024852907       0.24354007962786936        0.00000000    
  -5.1464875624882929        6.3428967601878412        0.00000000    
  -1.6217364833382986       -6.1831568643097690        0.00000000    
 -0.59363380019493750       -4.3233062363988042        0.00000000    
   2.1682739182600663       -4.6319068390583409        0.00000000    
   1.5869383900852922       -3.8755391003008892        0.00000000    
   4.7277352835820512       -4.6524663772562151        0.00000000    
   5.2272098747228855       -3.4458382173108708        0.00000000    
   8.9171498932627689       -4.4372932087121928        0.00000000    
   11.452115456723201        3.0788386432937731        0.00000000    
   9.5227440881417582        1.7523509919658375        0.00000000    
   11.134825392284066        8.9458933817253818        0.00000000    
   2.6553911886899999       0.17175420726077748        0.00000000    
   2.5073697637458561       0.13159640520391497        0.00000000    
   2.4455718138387752       0.22105747742756857        0.00000000    
   2.3553791027253506       0.26826829225861371        0.00000000    
   2.2249645445672210       0.33126407344743108        0.00000000    
   2.0620490764090902       0.36169621467990282        0.00000000    
   1.8956700358965313       0.36972200103912617        0.00000000    
   1.7263340193958192       0.36595878577804436        0.00000000    
   1.5608994829809422       0.35499266658518003        0.00000000    
   1.3985330139026109       0.34216140299508424        0.00000000    
   1.2418410287781789       0.32841181043335999        0.00000000    
   1.0895518047424331       0.31572456643527941        0.00000000    
  0.94251445860200800       0.30401646478871097        0.00000000    
  0.79946271726330165       0.29402439087102822        0.00000000    
  0.66048506944332319       0.28546805808632336        0.00000000    
  0.52448114978583293       0.27865049125027852        0.00000000    
  0.39118903794844345       0.27330837807005381        0.00000000    
  0.25969643277908644       0.26960474980831645        0.00000000    
  0.12954841422863173       0.26733267706311847        0.00000000    
   0.0000000000000000       0.26662818446293712        0.00000000    
   0.0000000000000000       0.39322921453864368        0.00000000    
 -0.12224837291316404       0.39430816999031570        0.00000000    
 -0.24497181726949324       0.39727535459751306        0.00000000    
 -0.36847745788766922       0.40243717228014414        0.00000000    
 -0.49338350627248817       0.40950151013923575        0.00000000    
 -0.61977101560690184       0.41884155543783719        0.00000000    
 -0.74838103258091748       0.43002702225850420        0.00000000    
 -0.87893591039727925       0.44348823928930597        0.00000000    
  -1.0122526765722775       0.45839899126017941        0.00000000    
  -1.1474137594326246       0.47512120668826641        0.00000000    
  -1.2852077219377045       0.49180852985147927        0.00000000    
  -1.4235158760902318       0.50825526278983013        0.00000000    
  -1.5630231423896688       0.52005019057431123        0.00000000    
  -1.6992913003734884       0.52480838233466709        0.00000000    
  -1.8338041798410520       0.51206397787942026        0.00000000    
  -1.9550318094593286       0.47325346296468213        0.00000000    
  -2.0704755389510940       0.38327610354525782        0.00000000    
  -2.1251780192120764       0.24680815362987130        0.00000000    
  -2.2374679025051321       0.26687010102276199        0.00000000    
  -12.280382430767812        10.355296288902537        0.00000000    
  -6.3186969869174066       -7.2865275328379893        0.00000000    
   3.1558671600578818       -5.5530477973008034        0.00000000    
   3.6617952363088535       -6.4874460627116495        0.00000000    
   2.5740380313035724       -4.1419175260904311        0.00000000    
   2.5067599773482567       -3.7169148310476881        0.00000000    
  -5.5593797540258151E-002  -5.3895337650135824        0.00000000    
   4.9221123358907821       -8.1859515540370147        0.00000000    
   5.7920306955505190       -4.2570382500789616        0.00000000    
   11.932756806591698       -5.7771079897628042        0.00000000    
   15.136907229563677        9.3335185707487529        0.00000000    
   8.6005443244626800        6.2890074039609951        0.00000000    
   10.927077696902106        8.9815410163134075        0.00000000    
   2.1726788188489516       0.22422989914922739        0.00000000    
   2.1129547872941870       0.24994596494348945        0.00000000    
   2.0678569552807837       0.37467034786819642        0.00000000    
   1.9534734194909251       0.46966011178390749        0.00000000    
   1.8303561633802941       0.50933290061038905        0.00000000    
   1.6957709253714393       0.52304959362793046        0.00000000    
   1.5591187994924338       0.51861933556696427        0.00000000    
   1.4198723307177781       0.50701312198361836        0.00000000    
   1.2817035502351677       0.49067619715549832        0.00000000    
   1.1443034133525365       0.47398913827781081        0.00000000    
   1.0094275360662457       0.45731233991072506        0.00000000    
  0.87651666087685032       0.44237691264087653        0.00000000    
  0.74628434406884858       0.42894800116340115        0.00000000    
  0.61806071383362693       0.41774572584693698        0.00000000    
  0.49200356772350917       0.40843388925508656        0.00000000    
  0.36746158008978869       0.40135907953414435        0.00000000    
  0.24428821679169102       0.39622001680948304        0.00000000    
  0.12191170636388798       0.39324193903799987        0.00000000    
   0.0000000000000000       0.39217904307837065        0.00000000    
   0.0000000000000000       0.51041128672891534        0.00000000    
 -0.11211758893515893       0.51149205964613687        0.00000000    
 -0.22438636003046949       0.51508368039110231        0.00000000    
 -0.33707232624685035       0.52082045331888160        0.00000000    
 -0.45013321998446182       0.52908517122070142        0.00000000    
 -0.56387856862211194       0.53939075232620537        0.00000000    
 -0.67794873357828067       0.55215800729809905        0.00000000    
 -0.79259540932266481       0.56655880780822698        0.00000000    
 -0.90692192321496978       0.58297170280635136        0.00000000    
  -1.0209495962118098       0.59973725099705077        0.00000000    
  -1.1328571257824160       0.61689397761619225        0.00000000    
  -1.2421863497425110       0.63080719313550382        0.00000000    
  -1.3455188385823134       0.64033801536572710        0.00000000    
  -1.4418269965423343       0.63709687348483901        0.00000000    
  -1.5243864384109407       0.61684780806333961        0.00000000    
  -1.5920855355889481       0.55739635957472822        0.00000000    
  -1.6251428827474526       0.44763428358355783        0.00000000    
  -1.5504721352922852       0.16248170639498216        0.00000000    
  -2.8741095097227425        1.7871238059781400        0.00000000    
   8.7432521083863595        7.2605954941766759        0.00000000    
   9.0311945219026430       -10.441454595372130        0.00000000    
   6.6088816395421190       -9.4503719992950135        0.00000000    
   8.2621538047751972       -4.7493221020926679        0.00000000    
   4.0625447425547261      -0.59267521939600498        0.00000000    
  -1.0444434154735103       -2.0918909256514935        0.00000000    
  -1.3646418642554459       -4.1320054466499263        0.00000000    
  -5.8052823626939771       -9.9805455072865605        0.00000000    
   5.9072882908715245       -15.044933309972301        0.00000000    
   6.4873440643905207       -1.7099948143174200        0.00000000    
   12.359107435962105       -3.8095083991783318        0.00000000    
   17.732551811979508        20.594952903103152        0.00000000    
  -2.1618382500912339        12.243452206832231        0.00000000    
   2.3790152178127189        1.1758641189403105        0.00000000    
   1.5724479000514031       0.16460309446660301        0.00000000    
   1.6329491839760293       0.44460976643144001        0.00000000    
   1.5912864643205109       0.55576694866414333        0.00000000    
   1.5223205825444537       0.61530920161449332        0.00000000    
   1.4382408787047205       0.63573823447039546        0.00000000    
   1.3419246374750726       0.63889906183088119        0.00000000    
   1.2384874484546085       0.62941705351273092        0.00000000    
   1.1295071563745798       0.61542133818677724        0.00000000    
   1.0178443322399184       0.59830695826168845        0.00000000    
  0.90422698134952850       0.58148774810128834        0.00000000    
  0.79021952863988987       0.56511983234717966        0.00000000    
  0.67596429191046881       0.55069263499228671        0.00000000    
  0.56221978962681829       0.53796922453473650        0.00000000    
  0.44883556571463323       0.52765176058735985        0.00000000    
  0.33609482810248692       0.51942393344553839        0.00000000    
  0.22374596876736569       0.51367738552908337        0.00000000    
  0.11179485858322682       0.51011219092813098        0.00000000    
   0.0000000000000000       0.50901535613313653        0.00000000    
   0.0000000000000000       0.61632358530675602        0.00000000    
  -9.9919868548998841E-002  0.61761721855021368        0.00000000    
 -0.19977265907021466       0.62108008310131135        0.00000000    
 -0.29936172762569768       0.62709908537829739        0.00000000    
 -0.39863541173943084       0.63514111701038911        0.00000000    
 -0.49713696515566980       0.64558170858816877        0.00000000    
 -0.59469047642020911       0.65759072725459977        0.00000000    
 -0.69038988469522944       0.67147217186889729        0.00000000    
 -0.78371948601542019       0.68571445395592678        0.00000000    
 -0.87302704700146305       0.70032973382813213        0.00000000    
 -0.95710286237266862       0.71228483972465628        0.00000000    
  -1.0330827623347454       0.72072545494699491        0.00000000    
  -1.0984837266772185       0.71915320673420380        0.00000000    
  -1.1484028486520665       0.70450896204902080        0.00000000    
  -1.1777351985166664       0.66132751122994049        0.00000000    
  -1.1775101657140576       0.58039072078129117        0.00000000    
  -1.1290910289824025       0.40927813280102304        0.00000000    
  -1.0638014870863175        6.0877567824036513E-002   0.00000000    
  0.63904726982736482        1.5095165620576103        0.00000000    
  -1.6317824402469341       -1.8083291698321176        0.00000000    
   9.1423592276147154       -12.434614012663580        0.00000000    
   16.907388149778807       -12.799928621695278        0.00000000    
   10.505950394943422        3.3484001099899237        0.00000000    
  0.56140134767866667        5.4537606781179191        0.00000000    
  -4.3179712629649236        1.8480339455945836        0.00000000    
  -6.3990295885708290       -5.6706735433990261        0.00000000    
  -5.4874145664681002       -4.9128519341127417        0.00000000    
  -19.338718102896618       -17.973894000175296        0.00000000    
   6.4277782907177441       -25.127586291174914        0.00000000    
   5.3823019018192424        14.781796095123344        0.00000000    
  -3.8578356440557982        5.8703415786977100        0.00000000    
   17.404324897634297        25.600293051772375        0.00000000    
 -0.18475406273486114       0.86724876647280991        0.00000000    
   1.0442742912655101        5.0757410570469487E-002   0.00000000    
   1.1279526371431541       0.41427582052298045        0.00000000    
   1.1752801629721428       0.58043608839625138        0.00000000    
   1.1737555179935568       0.66113058863487373        0.00000000    
   1.1444797497709851       0.70327231950986924        0.00000000    
   1.0944037706628906       0.71775719712701680        0.00000000    
   1.0294094491100600       0.71899042878755970        0.00000000    
  0.95368900622437203       0.71054869787551578        0.00000000    
  0.87005998136341911       0.69847144756627944        0.00000000    
  0.78108976126462559       0.68391082978370976        0.00000000    
  0.68816720700732537       0.66962675762943258        0.00000000    
  0.59279809715847986       0.65581005628611089        0.00000000    
  0.49560468425536736       0.64378971842542299        0.00000000    
  0.39741410629241591       0.63340606856960724        0.00000000    
  0.29846527749841195       0.62535919186720035        0.00000000    
  0.19917407198341955       0.61938219195532085        0.00000000    
   9.9624862780077400E-002  0.61590770388714122        0.00000000    
   0.0000000000000000       0.61463956453520596        0.00000000    
   0.0000000000000000       0.70957617082966262        0.00000000    
  -8.6262139270467914E-002  0.71054664084452379        0.00000000    
 -0.17213938501939724       0.71388069707489643        0.00000000    
 -0.25727867664247739       0.71902683158102465        0.00000000    
 -0.34111694928903247       0.72632532756569901        0.00000000    
 -0.42317289818625559       0.73495500034406702        0.00000000    
 -0.50253368418291955       0.74513173275765365        0.00000000    
 -0.57836865975652918       0.75546555021221085        0.00000000    
 -0.64918403142092440       0.76586604859494700        0.00000000    
 -0.71345261740261223       0.77375428615456210        0.00000000    
 -0.76878634047577710       0.77826982584034121        0.00000000    
 -0.81237547088724216       0.77430949920253112        0.00000000    
 -0.84055774310511966       0.75915239903674525        0.00000000    
 -0.84806018140681583       0.72193133002060050        0.00000000    
 -0.82989510463528715       0.65507241634909252        0.00000000    
 -0.77507825325246893       0.53160393147400975        0.00000000    
 -0.68847946139318339       0.32304699351476318        0.00000000    
 -0.58067423446799404       -2.5986061714832982E-002   0.00000000    
 -0.36737417860976346      -0.31976862118715943        0.00000000    
   1.1954945476895380       0.72891699727275272        0.00000000    
   15.646184581672628       -40.196691881497266        0.00000000    
   21.283821297006124        1.5594836097045905        0.00000000    
  -2.3000500120983518        18.974296942646006        0.00000000    
  -10.797592712137305        8.2699555928470012        0.00000000    
  -4.1746313869663174       -2.7117496835476111        0.00000000    
  -3.8307800642942280       0.62631708876989678        0.00000000    
  -8.5794624295777417       -7.3727752229908869        0.00000000    
  -11.105228198606680       0.86309859424930646        0.00000000    
  -49.854133020612053       -30.982170457103557        0.00000000    
  -31.021238075580943        2.8489617049753702        0.00000000    
  -7.3471904573041291        3.3692658965635691        0.00000000    
  -22.258162740802000        21.750180475726161        0.00000000    
  0.44861405237763607      -0.40033649009577060        0.00000000    
  0.57643868502676032       -3.8510319516541089E-002   0.00000000    
  0.67435411269227563       0.32194977706280797        0.00000000    
  0.76721575919792928       0.53257295951931527        0.00000000    
  0.82372893024126037       0.65400519144433134        0.00000000    
  0.84278616781102722       0.72061624735098440        0.00000000    
  0.83613874129402510       0.75713667490854630        0.00000000    
  0.80848373471172408       0.77226027913897566        0.00000000    
  0.76548328094178875       0.77599974417737316        0.00000000    
  0.71057385313820531       0.77155885392677470        0.00000000    
  0.64675575064110447       0.76361174601680371        0.00000000    
  0.57629619532794862       0.75330795096459968        0.00000000    
  0.50082581330986353       0.74296835481559487        0.00000000    
  0.42177296713159107       0.73287767897511691        0.00000000    
  0.34002790456475118       0.72425374854744073        0.00000000    
  0.25646831414099880       0.71701993110490592        0.00000000    
  0.17160878098119797       0.71187219139015689        0.00000000    
   8.5996693028009205E-002  0.70857900160660692        0.00000000    
   0.0000000000000000       0.70758982262158654        0.00000000    
   0.0000000000000000       0.78855258841279963        0.00000000    
  -7.1678043948894932E-002  0.78951040647849013        0.00000000    
 -0.14274673328716367       0.79186286652586824        0.00000000    
 -0.21252104333704222       0.79595826380075008        0.00000000    
 -0.28030120686499599       0.80101233151822104        0.00000000    
 -0.34516428509380503       0.80718702351531302        0.00000000    
 -0.40611503839464042       0.81321124888163820        0.00000000    
 -0.46181030452798988       0.81891627579291648        0.00000000    
 -0.51066960235251269       0.82208999250087611        0.00000000    
 -0.55072878997467178       0.82185811585020185        0.00000000    
 -0.57938575204480014       0.81415668128567720        0.00000000    
 -0.59392682770623151       0.79655284982779073        0.00000000    
 -0.59005146202984349       0.76121595495058392        0.00000000    
 -0.56479291247960139       0.70211166285585269        0.00000000    
 -0.51134935701319328       0.60328345127334049        0.00000000    
 -0.43201879993485798       0.44924548808605685        0.00000000    
 -0.32505565694212196       0.21184350204769178        0.00000000    
 -0.22780157611188093      -0.11984187800657782        0.00000000    
 -0.15283191955651446      -0.51418251731216158        0.00000000    
   4.5100902215155267E-002 -0.83747065467419224        0.00000000    
  -25.634487337221351       -27.401406024060854        0.00000000    
  -46.144372574635419        3.6364462744633261        0.00000000    
  -22.216188872124135        16.553021884542499        0.00000000    
  -2.3475416437038006      -0.67987387730265592        0.00000000    
 -0.87745355798201863       -1.8549696241961564        0.00000000    
  -9.7852844774986486E-002  -1.3539150063512955        0.00000000    
  0.92733935734441930       -1.6690529646072196        0.00000000    
  0.98442850362415879       -2.3719470412688608        0.00000000    
   7.2301549571949035        4.7560535469409775        0.00000000    
  -14.249242235989165       -30.242760050831532        0.00000000    
  -21.170356902037881        19.708054700138309        0.00000000    
   6.3622833825402014E-002 -0.91161578012123612        0.00000000    
  0.13808859501053306      -0.51978278861537253        0.00000000    
  0.21144627762586593      -0.12024633626374411        0.00000000    
  0.31102115551936904       0.20619548824799669        0.00000000    
  0.42043093860101644       0.44605581874381883        0.00000000    
  0.50348906075497202       0.60095103902014591        0.00000000    
  0.55881896043815837       0.69928326251962192        0.00000000    
  0.58536127227243029       0.75857477442038890        0.00000000    
  0.59014459884192549       0.79369385963750760        0.00000000    
  0.57624644131811276       0.81146477497037783        0.00000000    
  0.54812891711144418       0.81912077514166837        0.00000000    
  0.50848638314785022       0.81951046126039895        0.00000000    
  0.46000369569583066       0.81635147848386613        0.00000000    
  0.40462193563146998       0.81077696937656207        0.00000000    
  0.34396537797535925       0.80477846824624366        0.00000000    
  0.27936267684994254       0.79870072296634886        0.00000000    
  0.21183313556629729       0.79366208839112451        0.00000000    
  0.14229259870886879       0.78963010411893431        0.00000000    
   7.1453536006350890E-002  0.78727223953127889        0.00000000    
   0.0000000000000000       0.78634681372903004        0.00000000    
   0.0000000000000000       0.85306713886931884        0.00000000    
  -5.6756801396576552E-002  0.85343070136517307        0.00000000    
 -0.11268754312061652       0.85494200269922249        0.00000000    
 -0.16693150756084227       0.85689740211523047        0.00000000    
 -0.21854047636325155       0.85946232553182877        0.00000000    
 -0.26643960105020992       0.86149923241519910        0.00000000    
 -0.30940984548624917       0.86282003771634563        0.00000000    
 -0.34593700328732163       0.86152991089034558        0.00000000    
 -0.37440357426146231       0.85680222619981794        0.00000000    
 -0.39256755079863004       0.84536904630827781        0.00000000    
 -0.39840565226112590       0.82514081435791164        0.00000000    
 -0.38863033902712846       0.79033447918063071        0.00000000    
 -0.36135932160044343       0.73628794249230867        0.00000000    
 -0.31229922118563308       0.65272102534661425        0.00000000    
 -0.24285802172960572       0.52978933385766425        0.00000000    
 -0.15134036213200297       0.35189138882313209        0.00000000    