 <VTKFile type="UnstructuredGrid" version="0.1" byte_order="BigEndian">
 <UnstructuredGrid>
 <Piece NumberOfPoints="        2601 " NumberOfCells="        2500 ">
 <PointData Scalars="scalars">
 <DataArray type="Float32" NumberOfComponents="3" Name="Velocity" Format="ascii">
   0.0000000000000000        0.0000000000000000        0.00000000    
 -0.13807820794913497        0.0000000000000000        0.00000000    
 -0.27524954430126097        0.0000000000000000        0.00000000    
 -0.41056197446931264        0.0000000000000000        0.00000000    
 -0.54302993539778266        0.0000000000000000        0.00000000    
 -0.67153670116894004        0.0000000000000000        0.00000000    
 -0.79489133838134474        0.0000000000000000        0.00000000    
 -0.91169955925666246        0.0000000000000000        0.00000000    
  -1.0204460624344778        0.0000000000000000        0.00000000    
  -1.1193659112811221        0.0000000000000000        0.00000000    
  -1.2065407931005157        0.0000000000000000        0.00000000    
  -1.2797988987251434        0.0000000000000000        0.00000000    
  -1.3368533598363561        0.0000000000000000        0.00000000    
  -1.3752231793306224        0.0000000000000000        0.00000000    
  -1.3925291447962964        0.0000000000000000        0.00000000    
  -1.3863352848365844        0.0000000000000000        0.00000000    
  -1.3548469258794880        0.0000000000000000        0.00000000    
  -1.2963954614037525        0.0000000000000000        0.00000000    
  -1.2108313436053963        0.0000000000000000        0.00000000    
  -1.0982133033229695        0.0000000000000000        0.00000000    
 -0.96082773044222414        0.0000000000000000        0.00000000    
 -0.80104076994364293        0.0000000000000000        0.00000000    
 -0.62292109449994104        0.0000000000000000        0.00000000    
 -0.43085263575355143        0.0000000000000000        0.00000000    
 -0.22861559010401419        0.0000000000000000        0.00000000    
  -2.2207351110574602E-002   0.0000000000000000        0.00000000    
  0.18630145529358369        0.0000000000000000        0.00000000    
  0.38902026646389304        0.0000000000000000        0.00000000    
  0.58524835939773934        0.0000000000000000        0.00000000    
  0.76553175779791505        0.0000000000000000        0.00000000    
  0.93006354230849952        0.0000000000000000        0.00000000    
   1.0699732986032813        0.0000000000000000        0.00000000    
   1.1867955646592545        0.0000000000000000        0.00000000    
   1.2745460989004669        0.0000000000000000        0.00000000    
   1.3363844680169767        0.0000000000000000        0.00000000    
   1.3696661567544304        0.0000000000000000        0.00000000    
   1.3785879332155233        0.0000000000000000        0.00000000    
   1.3628011377081557        0.0000000000000000        0.00000000    
   1.3266557768956553        0.0000000000000000        0.00000000    
   1.2708935492180695        0.0000000000000000        0.00000000    
   1.1994148432975305        0.0000000000000000        0.00000000    
   1.1132937861768817        0.0000000000000000        0.00000000    
   1.0157349249803984        0.0000000000000000        0.00000000    
  0.90779797916631710        0.0000000000000000        0.00000000    
  0.79197770823829683        0.0000000000000000        0.00000000    
  0.66921545736337351        0.0000000000000000        0.00000000    
  0.54139637073160518        0.0000000000000000        0.00000000    
  0.40936198405008278        0.0000000000000000        0.00000000    
  0.27452785934382579        0.0000000000000000        0.00000000    
  0.13771091840027400        0.0000000000000000        0.00000000    
   0.0000000000000000        0.0000000000000000        0.00000000    
   0.0000000000000000       0.13814142832953669        0.00000000    
 -0.13775487478676199       0.13769165440663464        0.00000000    
 -0.27460980076212843       0.13633460792105001        0.00000000    
 -0.40964957688188230       0.13401759836711280        0.00000000    
 -0.54186947740223035       0.13067026308181343        0.00000000    
 -0.67021461995677278       0.12618164524432934        0.00000000    
 -0.79345990386873544       0.12041827588005902        0.00000000    
 -0.91028561334388236       0.11321565447093833        0.00000000    
  -1.0191403949432190       0.10438563030614155        0.00000000    
  -1.1183316916526655        9.3725515250580177E-002   0.00000000    
  -1.2059069747447040        8.1024649660680112E-002   0.00000000    
  -1.2797572665561499        6.6083747776130700E-002   0.00000000    
  -1.3375368564923513        4.8750303271002791E-002   0.00000000    
  -1.3768371785429128        2.8919838274676871E-002   0.00000000    
  -1.3951081733279405        6.6571219756259171E-003   0.00000000    
  -1.3900731982122669       -1.7885957050034706E-002   0.00000000    
  -1.3594840571837874       -4.4191542936066572E-002   0.00000000    
  -1.3020909783217247       -7.1653000400624403E-002   0.00000000    
  -1.2168407378463888       -9.9161357873722988E-002   0.00000000    
  -1.1046729608413997      -0.12562445941245476        0.00000000    
 -0.96668335180792198      -0.14975072250254851        0.00000000    
 -0.80636204483957985      -0.17035754496301878        0.00000000    
 -0.62715456302608841      -0.18696961229506287        0.00000000    
 -0.43351676177598375      -0.19873664769998758        0.00000000    
 -0.23064255483857896      -0.20637460488791667        0.00000000    
  -2.1621467173370774E-002 -0.20905472176924814        0.00000000    
  0.18664006502127475      -0.20771561683053824        0.00000000    
  0.39291233831983574      -0.20127546763686671        0.00000000    
  0.58815476373074305      -0.19019505070883305        0.00000000    
  0.77212114158562073      -0.17405472554482571        0.00000000    
  0.93499678688595778      -0.15335270426695585        0.00000000    
   1.0775735574091243      -0.12913382254970093        0.00000000    
   1.1921332732280852      -0.10224815932597484        0.00000000    
   1.2811458071092865       -7.4514908795271853E-002   0.00000000    
   1.3404951903620284       -4.6672843574589756E-002   0.00000000    
   1.3740930205734128       -2.0206675373210931E-002   0.00000000    
   1.3807656436800242        4.6122758050286955E-003   0.00000000    
   1.3649510226847501        2.6989140698524275E-002   0.00000000    
   1.3270581579045935        4.7049084893781505E-002   0.00000000    
   1.2712739384251608        6.4497362264027941E-002   0.00000000    
   1.1985998343832802        7.9655447698156343E-002   0.00000000    
   1.1125845830672492        9.2480860739205056E-002   0.00000000    
   1.0143199951190516       0.10334258840534707        0.00000000    
  0.90662208489738283       0.11229226763098209        0.00000000    
  0.79048413097455872       0.11966595721983148        0.00000000    
  0.66805409289765494       0.12552633173248171        0.00000000    
  0.54020325389824408       0.13014359389875771        0.00000000    
  0.40854183863942828       0.13355220804197890        0.00000000    
  0.27387425748547800       0.13594949781837512        0.00000000    
  0.13741759445092525       0.13732410616004220        0.00000000    
   0.0000000000000000       0.13780440669138702        0.00000000    
   0.0000000000000000       0.27561473328210678        0.00000000    
 -0.13676387847448487       0.27473710271550383        0.00000000    
 -0.27267837186522759       0.27205857897872870        0.00000000    
 -0.40684837639893034       0.26750340796283573        0.00000000    
 -0.53835286222265022       0.26090883983084812        0.00000000    
 -0.66613795154259547       0.25207330036947129        0.00000000    
 -0.78908784179919678       0.24072179492443371        0.00000000    
 -0.90588035381160881       0.22653035691354148        0.00000000    
  -1.0150815370170951       0.20912689266959411        0.00000000    
  -1.1150025498666092       0.18809656244521791        0.00000000    
  -1.2037912075236119       0.16301754321661835        0.00000000    
  -1.2793318619767875       0.13348180048362995        0.00000000    
  -1.3393360098605480        9.9135988385330318E-002   0.00000000    
  -1.3813021416479292        5.9800606996764885E-002   0.00000000    
  -1.4026856723384309        1.5430878731291314E-002   0.00000000    
  -1.4008573579364620       -3.3523003325240920E-002   0.00000000    
  -1.3735874236947914       -8.6413571928402946E-002   0.00000000    
  -1.3187595016123463      -0.14165197235508337        0.00000000    
  -1.2356414667093427      -0.19753066129460059        0.00000000    
  -1.1237451020531399      -0.25131929765544808        0.00000000    
 -0.98528263696318219      -0.30050795837960448        0.00000000    
 -0.82239640817243831      -0.34280784484808730        0.00000000    
 -0.64004629921165190      -0.37607690318056325        0.00000000    
 -0.44266599949433044      -0.40064745778522914        0.00000000    
 -0.23495092016267671      -0.41505308106781880        0.00000000    
  -2.2819156595411137E-002 -0.42152909682527551        0.00000000    
  0.19165140006381107      -0.41797333062441916        0.00000000    
  0.40018483096100999      -0.40582345804216824        0.00000000    
  0.60228576926795407      -0.38299042401755323        0.00000000    
  0.78722356357251722      -0.35016352439877180        0.00000000    
  0.95514966151584613      -0.30804564865311496        0.00000000    
   1.0962502075242662      -0.25811819469803238        0.00000000    
   1.2123024095586052      -0.20387570502773708        0.00000000    
   1.2975324497748075      -0.14712993719343473        0.00000000    
   1.3556276388953363       -9.1502387546881850E-002   0.00000000    
   1.3846377114161499       -3.7985034135241021E-002   0.00000000    
   1.3891414532669124        1.1214269612106999E-002   0.00000000    
   1.3692783925645742        5.6064828587323125E-002   0.00000000    
   1.3295245563946425        9.5620097957121064E-002   0.00000000    
   1.2708234181959586       0.13041170687743070        0.00000000    
   1.1970451911222739       0.16019343420202228        0.00000000    
   1.1093041165762580       0.18569920009634638        0.00000000    
   1.0107098438285000       0.20698310974554510        0.00000000    
  0.90229365041791310       0.22476584992230503        0.00000000    
  0.78644321917287063       0.23918076009746758        0.00000000    
  0.66404967442408847       0.25083511168007899        0.00000000    
  0.53690243309351293       0.25983289428196615        0.00000000    
  0.40578972210803499       0.26663703390287757        0.00000000    
  0.27204872432513516       0.27127325089488902        0.00000000    
  0.13644378708869095       0.27406195335458988        0.00000000    
   0.0000000000000000       0.27492794103676799        0.00000000    
   0.0000000000000000       0.41174259447825190        0.00000000    
 -0.13507521566572453       0.41044833565992384        0.00000000    
 -0.26935984417485825       0.40654646793413224        0.00000000    
 -0.40205616727391807       0.39988184664096155        0.00000000    
 -0.53227453361984389       0.39025325332189897        0.00000000    
 -0.65909705542558850       0.37733649800530139        0.00000000    
 -0.78143076914753073       0.36074220126624296        0.00000000    
 -0.89811466853518263       0.33998636197343657        0.00000000    
  -1.0077482077791529       0.31450561005778854        0.00000000    
  -1.1087994743062850       0.28369012443579267        0.00000000    
  -1.1994632948616801       0.24687645943657197        0.00000000    
  -1.2777289851437328       0.20342922900155302        0.00000000    
  -1.3413246485536998       0.15278837115871721        0.00000000    
  -1.3877379341181488        9.4527641578430119E-002   0.00000000    
  -1.4142722113019330        2.8621652020899759E-002   0.00000000    
  -1.4181158707849626       -4.4698431529945550E-002   0.00000000    
  -1.3964366257971927      -0.12418732295679132        0.00000000    
  -1.3468464977675987      -0.20829627143423296        0.00000000    
  -1.2671755143421859      -0.29367538054818482        0.00000000    
  -1.1572650777814300      -0.37698137961365580        0.00000000    
  -1.0171907491064824      -0.45338267019126455        0.00000000    
 -0.85118542528944152      -0.51882468563843087        0.00000000    
 -0.66260548895442162      -0.57099010769154701        0.00000000    
 -0.45839768302646705      -0.60732235891326702        0.00000000    
 -0.24374429827484639      -0.63074664402894920        0.00000000    
  -2.2829031145132409E-002 -0.63888256455464254        0.00000000    
  0.19750212468184558      -0.63542157538723942        0.00000000    
  0.41661813140679860      -0.61602465089509284        0.00000000    
  0.62344021543625894      -0.58171225350680855        0.00000000    
  0.81777103853684396      -0.53071031230861498        0.00000000    
  0.98687339474473601      -0.46452731489980592        0.00000000    
   1.1316588098091358      -0.38752248951865603        0.00000000    
   1.2438831370951395      -0.30274793953215762        0.00000000    
   1.3270509848696219      -0.21665559067483747        0.00000000    
   1.3784401806654032      -0.13146111898582261        0.00000000    
   1.4029662036920010       -5.1562398239517936E-002   0.00000000    
   1.4007368805155949        2.2517215038656974E-002   0.00000000    
   1.3766257189533653        8.8736105428890266E-002   0.00000000    
   1.3316512671280611       0.14767710910804624        0.00000000    
   1.2700321579010758       0.19867494315512152        0.00000000    
   1.1929487664060647       0.24279181649086323        0.00000000    
   1.1037904299457779       0.28000022881620229        0.00000000    
   1.0036304827188791       0.31143630099871156        0.00000000    
  0.89506846793139838       0.33729086686909171        0.00000000    
  0.77900780871069819       0.35856683361527730        0.00000000    
  0.65739056552752928       0.37545982609563838        0.00000000    
  0.53098275585546784       0.38876323086834907        0.00000000    
  0.40122285511264955       0.39857930904577166        0.00000000    
  0.26881195115025736       0.40548287749702050        0.00000000    
  0.13482941609505822       0.40943979904466127        0.00000000    
   0.0000000000000000       0.41082329853059374        0.00000000    
   0.0000000000000000       0.54576570727401941        0.00000000    
 -0.13261925994994447       0.54411969847993702        0.00000000    
 -0.26454867405747778       0.53908914773146588        0.00000000    
 -0.39505061519650320       0.53053743108125340        0.00000000    
 -0.52338603150525931       0.51815145153754916        0.00000000    
 -0.64867694373895257       0.50155173382803864        0.00000000    
 -0.77002565385042110       0.48020938927878221        0.00000000    
 -0.88631808460083794       0.45349550409729178        0.00000000    
 -0.99636946004744198       0.42068138262701998        0.00000000    
  -1.0987254432380089       0.38092160158191440        0.00000000    
  -1.1917666123463211       0.33334997195737082        0.00000000    
  -1.2735874532617819       0.27704224767519048        0.00000000    
  -1.3419861050901094       0.21116966772735499        0.00000000    
  -1.3945090116609116       0.13508253714116433        0.00000000    
  -1.4282901717862355        4.8382193772093088E-002   0.00000000    
  -1.4403186375258352       -4.8586848063258581E-002   0.00000000    
  -1.4272248596444579      -0.15507192928690294        0.00000000    
  -1.3857117460340789      -0.26851490674976969        0.00000000    
  -1.3128468350167102      -0.38599263966876041        0.00000000    
  -1.2060842723199419      -0.50133711975722595        0.00000000    
  -1.0662815561101133      -0.60890397492486381        0.00000000    
 -0.89428249364442536      -0.70130776719507371        0.00000000    
 -0.69810657768421469      -0.77326287842170971        0.00000000    
 -0.48247196233603085      -0.82489200946746088        0.00000000    
 -0.25632215034711964      -0.85398019020632088        0.00000000    
  -2.4979039459965328E-002 -0.86790739640271997        0.00000000    
  0.20966826460441310      -0.86137520342143170        0.00000000    
  0.43803958439784313      -0.83755834938777185        0.00000000    
  0.66047772134789862      -0.78943877598489420        0.00000000    
  0.86065852548800414      -0.71749541707918796        0.00000000    
   1.0384033094021512      -0.62458935024320617        0.00000000    
   1.1809446838796054      -0.51478724372426721        0.00000000    
   1.2914628891592179      -0.39822571788497785        0.00000000    
   1.3661284831989258      -0.27901125414242933        0.00000000    
   1.4105616409877737      -0.16492780909662197        0.00000000    
   1.4253139494485512       -5.7374039621362831E-002   0.00000000    
   1.4158935602748468        3.9978568775914630E-002   0.00000000    
   1.3836960150543014       0.12758345847005206        0.00000000    
   1.3333840628758182       0.20411616007509484        0.00000000    
   1.2663278038036656       0.27091126048370157        0.00000000    
   1.1862111920003104       0.32775550246426183        0.00000000    
   1.0941863232682878       0.37621974803238029        0.00000000    
  0.99303957764290907       0.41652347463768519        0.00000000    
  0.88368813918732370       0.45011714647115836        0.00000000    
  0.76819105691010181       0.47729829551332753        0.00000000    
  0.64728528758084980       0.49925137670863612        0.00000000    
  0.52247990727417870       0.51618487023564896        0.00000000    
  0.39441038035022014       0.52898709734448746        0.00000000    
  0.26419058956178876       0.53770578395009805        0.00000000    
  0.13243824041318036       0.54295177679521300        0.00000000    
   0.0000000000000000       0.54457897728867444        0.00000000    
   0.0000000000000000       0.67691151096341828        0.00000000    
 -0.12933166715553326       0.67492482189645020        0.00000000    
 -0.25806539491205149       0.66894716617871497        0.00000000    
 -0.38561358640702975       0.65872954526917160        0.00000000    
 -0.51129028817627575       0.64397145542660539        0.00000000    
 -0.63443064209499866       0.62416299609331494        0.00000000    
 -0.75418237514055753       0.59869857016873351        0.00000000    
 -0.86969396939915034       0.56681034821906351        0.00000000    
 -0.97985691280261944       0.52758085735269655        0.00000000    
  -1.0834878343570955       0.48000903160485281        0.00000000    
  -1.1791080208534290       0.42292389753555681        0.00000000    
  -1.2650084596248099       0.35518960178835685        0.00000000    
  -1.3391908681709066       0.27560337398411089        0.00000000    
  -1.3991823309620903       0.18316320025193514        0.00000000    
  -1.4422842052736402        7.7184565092616023E-002   0.00000000    
  -1.4650388945159023       -4.2606064395251345E-002   0.00000000    
  -1.4639167058295712      -0.17526867952936856        0.00000000    
  -1.4344747826149571      -0.31927319332441711        0.00000000    
  -1.3725284029621416      -0.47004564377228381        0.00000000    
  -1.2738597252090331      -0.62271535609444362        0.00000000    
  -1.1349691019315145      -0.76621907808421807        0.00000000    
 -0.95930099497183319      -0.89165983345074573        0.00000000    
 -0.74908156860059649      -0.98930615450782455        0.00000000    
 -0.51932170012414081       -1.0542432171946634        0.00000000    
 -0.27542229008445424       -1.0946782045188368        0.00000000    
  -2.5875952393849606E-002  -1.1080988306561503        0.00000000    
  0.22375384622014205       -1.1054608718576964        0.00000000    
  0.47537568481001785       -1.0734658393231675        0.00000000    
  0.71059799656311950       -1.0111917347635229        0.00000000    
  0.92864032614795988      -0.91396559201460725        0.00000000    
   1.1081023461262725      -0.78532597921015546        0.00000000    
   1.2512354246090400      -0.63972506770773352        0.00000000    
   1.3516714976465831      -0.48424217222737309        0.00000000    
   1.4164400059517295      -0.33242890213631887        0.00000000    
   1.4474880674704833      -0.18699138041778099        0.00000000    
   1.4513397051122874       -5.3914414395459943E-002   0.00000000    
   1.4303221652880702        6.6956872541708720E-002   0.00000000    
   1.3897005224250201       0.17342434279399599        0.00000000    
   1.3312530629797032       0.26703468736986719        0.00000000    
   1.2590106771435816       0.34729137810225458        0.00000000    
   1.1742826193630085       0.41622005442559445        0.00000000    
   1.0800257938870039       0.47403689028313384        0.00000000    
  0.97718726555972268       0.52269160633649736        0.00000000    
  0.86790022494897878       0.56258749384182782        0.00000000    
  0.75286691996576482       0.59535833540086602        0.00000000    
  0.63362373661672311       0.62134028950171183        0.00000000    
  0.51073465635730808       0.64179041800723480        0.00000000    
  0.38531614170814710       0.65686959114756538        0.00000000    
  0.25788257281027888       0.66747664983265453        0.00000000    
  0.12926328800277306       0.67355254486956861        0.00000000    
   0.0000000000000000       0.67567973763034139        0.00000000    
   0.0000000000000000       0.80425186072554722        0.00000000    
 -0.12511438491396951       0.80203052420385890        0.00000000    
 -0.24976291099683939       0.79522371771160494        0.00000000    
 -0.37342704962876744       0.78366532386234211        0.00000000    
 -0.49563145546591236       0.76691678444162903        0.00000000    
 -0.61574760847806409       0.74447417400740967        0.00000000    
 -0.73321089310410426       0.71560240992897528        0.00000000    
 -0.84721811529969060       0.67942532491028085        0.00000000    
 -0.95699980779490257       0.63491051656389752        0.00000000    
  -1.0614896638177440       0.58080014996720875        0.00000000    
  -1.1595342925106404       0.51579759436725658        0.00000000    
  -1.2496672196226550       0.43834927083515285        0.00000000    
  -1.3300731988152048       0.34703209268198398        0.00000000    
  -1.3986665011333170       0.24031924665720172        0.00000000    
  -1.4525730614974561       0.11703695337038168        0.00000000    
  -1.4887593660672722       -2.3517458868475959E-002   0.00000000    
  -1.5028242296054382      -0.18141461019552091        0.00000000    
  -1.4904619696748493      -0.35493144581250374        0.00000000    
  -1.4452822484615184      -0.54151349214000666        0.00000000    
  -1.3616278533585437      -0.73357058059341329        0.00000000    
  -1.2322393534224860      -0.92364297678689855        0.00000000    
  -1.0513302271103255       -1.0908131680320632        0.00000000    
 -0.82997759457732156       -1.2217248788173334        0.00000000    
 -0.57280932079409941       -1.3087526351583048        0.00000000    
 -0.30511552859842317       -1.3517619887760797        0.00000000    
  -2.9941993051174377E-002  -1.3757349196509665        0.00000000    
  0.25156194604751031       -1.3689585205608423        0.00000000    
  0.52582459778117974       -1.3358526809575881        0.00000000    
  0.79468522443570344       -1.2528878315226950        0.00000000    
   1.0223626050556252       -1.1179892054731921        0.00000000    
   1.2087584540851786      -0.94716023474668187        0.00000000    
   1.3399695621489245      -0.75223499872924038        0.00000000    
   1.4260804663427378      -0.55827921842600314        0.00000000    
   1.4726423364999996      -0.36972223441002466        0.00000000    
   1.4877093650161797      -0.19581313816937207        0.00000000    
   1.4755523114420459       -3.6787240719905467E-002   0.00000000    
   1.4421855966005854       0.10421395353995330        0.00000000    
   1.3900950327678194       0.22887946848466240        0.00000000    
   1.3237453598917830       0.33637669400727599        0.00000000    
   1.2447165383364900       0.42922057885069087        0.00000000    
   1.1561291479099596       0.50760630188971190        0.00000000    
   1.0589915733916264       0.57404504280899649        0.00000000    
  0.95546077638153648       0.62905277915230429        0.00000000    
  0.84620064961264474       0.67477348840239704        0.00000000    
  0.73271778846399804       0.71168850697540464        0.00000000    
  0.61549497784186358       0.74147611189609763        0.00000000    
  0.49560529069905013       0.76443336301735298        0.00000000    
  0.37345854346971269       0.78179190801463694        0.00000000    
  0.24983807414563522       0.79360837118888661        0.00000000    
  0.12515473154126699       0.80072345092480035        0.00000000    
   0.0000000000000000       0.80292685111962037        0.00000000    
   0.0000000000000000       0.92688358468017518        0.00000000    
 -0.11990249765191807       0.92441568281562647        0.00000000    
 -0.23943399198465989       0.91701857951493704        0.00000000    
 -0.35826147780983186       0.90436208651764483        0.00000000    
 -0.47593948169080741       0.88610243150289358        0.00000000    
 -0.59212560445954610       0.86159080272963329        0.00000000    
 -0.70626285117110599       0.83008631254170850        0.00000000    
 -0.81792515338387450       0.79061094670962551        0.00000000    
 -0.92639222144312072       0.74197365531520021        0.00000000    
  -1.0310246095167543       0.68285925531732283        0.00000000    
  -1.1308477957664442       0.61160630395464433        0.00000000    
  -1.2247739854998669       0.52659967809948083        0.00000000    
  -1.3114016884745281       0.42581536757837646        0.00000000    
  -1.3887845084399635       0.30751209405211793        0.00000000    
  -1.4547750430952104       0.16974120098680090        0.00000000    
  -1.5059342233847872        1.1123778383901847E-002   0.00000000    
  -1.5388138438146546      -0.16911136348963654        0.00000000    
  -1.5476582298309545      -0.37075256642147403        0.00000000    
  -1.5272263069805174      -0.59130401560644252        0.00000000    
  -1.4676950859197340      -0.82696567327760528        0.00000000    
  -1.3614782720728134       -1.0658531978992740        0.00000000    
  -1.1933605748399256       -1.2976297704496405        0.00000000    
 -0.95148111616296005       -1.4781403676251956        0.00000000    
 -0.66951262850706517       -1.5914739077726647        0.00000000    
 -0.35322193283679371       -1.6530252040446303        0.00000000    
  -3.2276213152054818E-002  -1.6705909595965125        0.00000000    
  0.29124032660223215       -1.6791229594856871        0.00000000    
  0.62480509462713762       -1.6335156617738140        0.00000000    
  0.91850230587251303       -1.5177826886228483        0.00000000    
   1.1690379365139756       -1.3313073596183500        0.00000000    
   1.3395364477756753       -1.0907364409074889        0.00000000    
   1.4476072002249425      -0.84794065306721755        0.00000000    
   1.5080306631720533      -0.60910793124170126        0.00000000    
   1.5307797897662236      -0.38820451833348707        0.00000000    
   1.5240703313688244      -0.18568842437549896        0.00000000    
   1.4945094984196599       -5.1940679800973983E-003   0.00000000    
   1.4455638764222372       0.15493311763004183        0.00000000    
   1.3822485204843977       0.29356622417381606        0.00000000    
   1.3065224901796115       0.41376564149162071        0.00000000    
   1.2216672117614196       0.51571573134688831        0.00000000    
   1.1287906627722362       0.60257508880340338        0.00000000    
   1.0300108644827073       0.67499362870880131        0.00000000    
  0.92594933439926852       0.73569652034155519        0.00000000    
  0.81800885395450085       0.78533035443115295        0.00000000    
  0.70657640267354260       0.82604695337300926        0.00000000    
  0.59261966812130595       0.85829721067603315        0.00000000    
  0.47643667378002819       0.88368494571939915        0.00000000    
  0.35872261494707058       0.90240113137695732        0.00000000    
  0.23976535662466777       0.91557687547200717        0.00000000    
  0.12008279721220348       0.92312084865953414        0.00000000    
   0.0000000000000000       0.92576698213835185        0.00000000    
   0.0000000000000000        1.0436862422767093        0.00000000    
 -0.11360319197910733        1.0411187148500824        0.00000000    
 -0.22697191981086684        1.0332157696461055        0.00000000    
 -0.33980906847619458        1.0198295308757748        0.00000000    
 -0.45192558891467494        1.0004295114665243        0.00000000    
 -0.56294959541248868       0.97447385203014680        0.00000000    
 -0.67270423999326923       0.94109515453708026        0.00000000    
 -0.78072628601957195       0.89928645294963638        0.00000000    
 -0.88678076667811556       0.84781969779785216        0.00000000    
 -0.99027531125199664       0.78514014547711108        0.00000000    
  -1.0907652228150537       0.70963851161393077        0.00000000    
  -1.1874355084717481       0.61916394582370726        0.00000000    
  -1.2793156416803024       0.51175893604530465        0.00000000    
  -1.3651554904527166       0.38479119431473419        0.00000000    
  -1.4428595495982548       0.23615669453470808        0.00000000    
  -1.5103127651652202        6.3320680682335248E-002   0.00000000    