 <VTKFile type="UnstructuredGrid" version="0.1" byte_order="BigEndian">
 <UnstructuredGrid>
 <Piece NumberOfPoints="        2601 " NumberOfCells="        2500 ">
 <PointData Scalars="scalars">
 <DataArray type="Float32" NumberOfComponents="3" Name="Velocity" Format="ascii">
   0.0000000000000000        0.0000000000000000        0.00000000    
  -7.0935228206856327E-002   0.0000000000000000        0.00000000    
 -0.14458182562482616        0.0000000000000000        0.00000000    
 -0.22766528905086350        0.0000000000000000        0.00000000    
 -0.32284804455286292        0.0000000000000000        0.00000000    
 -0.52592527025430913        0.0000000000000000        0.00000000    
  -1.0293429320226477        0.0000000000000000        0.00000000    
  -2.1112099543382712        0.0000000000000000        0.00000000    
  -28.557616391216907        0.0000000000000000        0.00000000    
  -12.019238264008743        0.0000000000000000        0.00000000    
  -8.4253140284867545        0.0000000000000000        0.00000000    
  -20.372667449819215        0.0000000000000000        0.00000000    
   12.798827566797749        0.0000000000000000        0.00000000    
   8.3500775886338925        0.0000000000000000        0.00000000    
   23.650470546261104        0.0000000000000000        0.00000000    
   32.727388465727117        0.0000000000000000        0.00000000    
   11.379273923696600        0.0000000000000000        0.00000000    
  -3.1936637151705245        0.0000000000000000        0.00000000    
  -34.426816985524830        0.0000000000000000        0.00000000    
  -23.135051214693938        0.0000000000000000        0.00000000    
  -15.457491370156228        0.0000000000000000        0.00000000    
  -3.0736232276245175        0.0000000000000000        0.00000000    
   18.969423415065652        0.0000000000000000        0.00000000    
   5.0693477265648026        0.0000000000000000        0.00000000    
   6.9167591828387343        0.0000000000000000        0.00000000    
 -0.33663509734930536        0.0000000000000000        0.00000000    
  0.69042925996696602        0.0000000000000000        0.00000000    
  -19.016401487831118        0.0000000000000000        0.00000000    
  -53.535387216924633        0.0000000000000000        0.00000000    
  -26.346005120597415        0.0000000000000000        0.00000000    
  -22.467453633470683        0.0000000000000000        0.00000000    
   8.3783082015078261        0.0000000000000000        0.00000000    
   32.204508287712052        0.0000000000000000        0.00000000    
 -0.12484295694031501        0.0000000000000000        0.00000000    
   7.2126281881859446        0.0000000000000000        0.00000000    
  -19.156233817280601        0.0000000000000000        0.00000000    
  -10.957872286622672        0.0000000000000000        0.00000000    
   3.1333397630042761        0.0000000000000000        0.00000000    
   24.734318017505604        0.0000000000000000        0.00000000    
   2.3331309450864834        0.0000000000000000        0.00000000    
  -23.472542175622589        0.0000000000000000        0.00000000    
   44.173866227105812        0.0000000000000000        0.00000000    
   36.576547483765452        0.0000000000000000        0.00000000    
   2.2392484479771961        0.0000000000000000        0.00000000    
  0.68531825185050044        0.0000000000000000        0.00000000    
  0.50486589455817066        0.0000000000000000        0.00000000    
  0.34413950378359143        0.0000000000000000        0.00000000    
  0.24258939480758959        0.0000000000000000        0.00000000    
  0.15290528933117373        0.0000000000000000        0.00000000    
   7.5074663917139184E-002   0.0000000000000000        0.00000000    
   0.0000000000000000        0.0000000000000000        0.00000000    
   0.0000000000000000        6.8949509775763487E-002   0.00000000    
  -6.8566690627233404E-002   7.0552409056327245E-002   0.00000000    
 -0.14043382306429841        7.4961320796660943E-002   0.00000000    
 -0.21823177542040637        8.5920094983312892E-002   0.00000000    
 -0.31442181890102233       0.10545270399692387        0.00000000    
 -0.42149769677782195       0.20470039957828398        0.00000000    
 -0.47696370977779073       0.35418327518369908        0.00000000    
 -0.34622652420647820       0.59694656166594162        0.00000000    
   11.850188170217370        13.653045180990489        0.00000000    
  -28.009162660776674        9.6679275229863872        0.00000000    
  -12.868428071707291       -28.402586347381384        0.00000000    
   23.338780381250764        4.1427313159478167        0.00000000    
  -23.924235864372790        9.9487899132386612        0.00000000    
   2.7952129906905685       -32.219488789954525        0.00000000    
   29.562565205207321       -9.8482563820141209        0.00000000    
   13.605356889720236        16.728546778206411        0.00000000    
   4.5717757387745497        13.653148914934501        0.00000000    
  -4.3618450021293400        9.8534094649941828        0.00000000    
  -5.0858531520688945        22.103751955448192        0.00000000    
  -37.191626082665245       -1.2897447955438401        0.00000000    
  -7.7006940202612011       -35.878747111269242        0.00000000    
   21.422611330848525       -5.6284263822590921        0.00000000    
  -5.1352439413157613        10.143235011822917        0.00000000    
   4.7869922851217304       -6.1653955496848862        0.00000000    
   7.1578844747339820        1.9470919038476693        0.00000000    
   1.9003731564915278        10.563813694617526        0.00000000    
  -9.5638005693567791      -0.12670432607118948        0.00000000    
   2.9614371923279230        7.3082973121707502        0.00000000    
  -11.764668656642787        41.936794265864933        0.00000000    
  -65.308423517551816       -15.582421501350522        0.00000000    
   7.9500033613629535       -61.554556864754794        0.00000000    
   34.359313867016922        4.2994845240348250        0.00000000    
  -10.443146337758680        16.676775594451584        0.00000000    
   11.052224508443452       -5.8427951960933946        0.00000000    
   2.4607681173847449        7.0967804419319824        0.00000000    
   1.1079769585145316        20.624872722304119        0.00000000    
  -26.842363310289155      -0.87289398426109588        0.00000000    
  -3.0653535938999337       -36.995327781862457        0.00000000    
   1.1366937920977493        11.192302141255766        0.00000000    
   2.5110337287849469        9.8345449943672474        0.00000000    
   28.670486423589001       -10.188324568564493        0.00000000    
  -17.993232771020459       -10.794364639662611        0.00000000    
  -16.383158562917895        16.781609174804554        0.00000000    
  0.17377021681471222       0.99876108116436402        0.00000000    
  0.56537754595922085       0.16356178580474001        0.00000000    
  0.42515926171033658       0.15710885573413819        0.00000000    
  0.32172048096029182       0.10705631578811922        0.00000000    
  0.22577493433131901        9.0439339814742545E-002   0.00000000    
  0.14627568005613620        7.8744019934840856E-002   0.00000000    
   7.1200584842435258E-002   7.4161700690961646E-002   0.00000000    
   0.0000000000000000        7.2113548066709277E-002   0.00000000    
   0.0000000000000000       0.13404741421507232        0.00000000    
  -6.2288170945921706E-002  0.13630936618821318        0.00000000    
 -0.12645947305608454       0.14524279820999642        0.00000000    
 -0.19490167276486622       0.16187876963279471        0.00000000    
 -0.27076072174947052       0.20154312181039138        0.00000000    
 -0.33196089530835970       0.27688603319825683        0.00000000    
 -0.35421630970838131       0.35971906896171146        0.00000000    
 -0.30741188125366492       0.41386915386042600        0.00000000    
  0.37570170364245953       0.95659430947566348        0.00000000    
   31.743441528430949        30.855989400932103        0.00000000    
   14.769451920151893       -47.757393205927407        0.00000000    
  -15.411458951873835        17.471240593737775        0.00000000    
   15.341538854175894        13.130299075221931        0.00000000    
  -9.0018143172536291       -37.777093635400156        0.00000000    
  -43.238743127493969        3.1789250593332041        0.00000000    
  -31.657699071627107        8.0775295966530241        0.00000000    
  -11.743828613842833        11.423876789817406        0.00000000    
   4.6989914654676470        4.5734822518607006        0.00000000    
   21.238810865190196        11.567867918948302        0.00000000    
   47.889829159932006        14.700893876950673        0.00000000    
   14.763424845066712       -48.233913531171190        0.00000000    
  -20.384935469951866        12.751795001672418        0.00000000    
  -4.7345457949447134        2.6704792251504865        0.00000000    
  -7.5787980546198295       -5.7706237297223497        0.00000000    
  -10.733979409527091        2.3366092492371071        0.00000000    
  -1.7431235544933346        6.4409518124707663        0.00000000    
   9.3092294494506600        4.4079782779985646        0.00000000    
   6.7812486819193962       -7.2236422860492908        0.00000000    
   38.921211502143109        39.054876892770963        0.00000000    
   79.037713834633763       0.72674840012603525        0.00000000    
   4.0374815368878796       -76.121921347513322        0.00000000    
  -37.590083677330824        34.085103715289549        0.00000000    
  -4.5018554869569725       -1.3946115824900929        0.00000000    
  -9.6166471520175474       -4.1519872003815568        0.00000000    
  -4.4930783450469720        8.8738600302051935        0.00000000    
   10.232382848195579        5.4751230995651650        0.00000000    
   34.260359767528485        18.199218987844105        0.00000000    
   3.5766577928778762       -49.160748495813557        0.00000000    
  -11.321161138664003        34.053494400635600        0.00000000    
  -1.4013713641313823       -24.320776976309137        0.00000000    
  -14.611237730467792        11.017411073521615        0.00000000    
  -1.8837307560353758        1.9361119383382341        0.00000000    
   2.5617335379049269E-002  0.53171029718109886        0.00000000    
  0.28528714029100050       0.43206137414053092        0.00000000    
  0.34360927486193205       0.28033202910930233        0.00000000    
  0.30193286340661885       0.22223330813085246        0.00000000    
  0.25376497201874842       0.19353853552718284        0.00000000    
  0.18998742496282567       0.16368021375846131        0.00000000    
  0.12500748515151905       0.14998234007565917        0.00000000    
   6.2249414392254072E-002  0.14075654652119243        0.00000000    
   0.0000000000000000       0.13896870146929083        0.00000000    
   0.0000000000000000       0.19075786299137765        0.00000000    
  -5.2313839977392473E-002  0.19420092833333147        0.00000000    
 -0.10487711646553963       0.20408581466128309        0.00000000    
 -0.15824621245753501       0.22484704888032048        0.00000000    
 -0.20494593433077968       0.26113361341875585        0.00000000    
 -0.23376414736540432       0.30731392818149583        0.00000000    
 -0.23204537430520639       0.34982781531654572        0.00000000    
 -0.19655048160771407       0.34146108635193284        0.00000000    
 -0.13034605299039648       0.27968436346838282        0.00000000    
  -8.1412493155567742E-002  0.11622596231625459        0.00000000    
  -8.5756756498487116E-002  -3.9295895524450578E-002   0.00000000    
  -9.3458750943107821E-002  -5.8243849995865168E-002   0.00000000    
  -7.4351636418738765E-002 -0.11232140153224719        0.00000000    
  -8.1994729725114512E-002 -0.18347689371961753        0.00000000    
  -9.1459391297835188E-002 -0.16829821036151860        0.00000000    
  -6.9028816697966067E-002 -0.17872176403769316        0.00000000    
  -6.3569783445891329E-002 -0.23920134045864860        0.00000000    
  -6.0381596725682038E-002 -0.20944788384038404        0.00000000    
  -5.2315124437460281E-002 -0.19708781729846170        0.00000000    
  -4.6876463128436179E-002 -0.19060734280697303        0.00000000    
  -5.9677319905244393E-002 -0.20320713964969497        0.00000000    
  -6.4835968184808190E-002 -0.12539242638840162        0.00000000    
  -4.4784153082687787E-002 -0.12277483689804561        0.00000000    
  -3.8671526479954706E-002 -0.13923003460108369        0.00000000    
  -3.4050783832619357E-002 -0.14422383366361927        0.00000000    
  -2.9894768833609504E-003 -0.10013226661573034        0.00000000    
   2.9329699996027313E-002 -0.13560982373829453        0.00000000    
   3.2247305293707937E-002 -0.15499102235837375        0.00000000    
   3.7795037038647498E-002 -0.15928492288916987        0.00000000    
   4.6670979475925821E-002 -0.18446805919925469        0.00000000    
   4.6082578833741547E-002 -0.20988418986058505        0.00000000    
   4.4030886902434820E-002 -0.19731653632886409        0.00000000    
   5.1437715115510298E-002 -0.20782634948218603        0.00000000    
   5.4122439796090625E-002 -0.22666549315268769        0.00000000    
   6.4998001887060911E-002 -0.18590604611697711        0.00000000    
   7.5718348451200776E-002 -0.20129236402916945        0.00000000    
   7.7999034198576109E-002 -0.15462315367459264        0.00000000    
   8.2932753205790660E-002 -0.12813809878345664        0.00000000    
   9.3031663305404244E-002  -9.1395975035780966E-002   0.00000000    
   7.8661857174151209E-002  -8.1306569170511392E-002   0.00000000    
   5.7185795538236835E-002   9.2830942306593688E-003   0.00000000    
   8.2937780858951912E-002  0.19098095782439153        0.00000000    
  0.14400082160449509       0.30643014553347830        0.00000000    
  0.21076475718440194       0.33090778529485182        0.00000000    
  0.23164191440904627       0.30228632615771067        0.00000000    
  0.21420614583125971       0.25939119111337061        0.00000000    
  0.18100945191679108       0.23774523784484514        0.00000000    
  0.14402350121349111       0.22023700919809930        0.00000000    
   9.7903491866888306E-002  0.20452549379201385        0.00000000    
   4.9409215898315810E-002  0.19746573953083579        0.00000000    
   0.0000000000000000       0.19391813874838515        0.00000000    
   0.0000000000000000       0.23719279195606932        0.00000000    
  -3.9925711064970386E-002  0.24000555040921062        0.00000000    
  -7.8837627154214968E-002  0.24975638516099236        0.00000000    
 -0.11334774548401499       0.26705569270061075        0.00000000    
 -0.13826964069402062       0.29054658667993721        0.00000000    
 -0.14645549850056366       0.31490502575976370        0.00000000    
 -0.12959759476242599       0.32366004093835610        0.00000000    
  -9.3529483240949951E-002  0.29606585650952177        0.00000000    
  -5.3943107602121662E-002  0.21928878905320121        0.00000000    
  -3.0093713691271649E-002  0.10383858298492156        0.00000000    
  -3.9535929982763333E-002  -1.3122036561547246E-002   0.00000000    
  -4.6379788299555767E-002  -6.9871856197706139E-002   0.00000000    
  -4.4430975129491353E-002 -0.12174932302520093        0.00000000    
  -4.9628389334742500E-002 -0.16120846471570641        0.00000000    
  -5.2843294221906471E-002 -0.17788707290589567        0.00000000    
  -4.8553206468365993E-002 -0.19585356384689359        0.00000000    
  -4.9891552593583105E-002 -0.22619022777635300        0.00000000    
  -5.9088385782074794E-002 -0.21645035007709063        0.00000000    
  -5.7057969320628066E-002 -0.20018223981143987        0.00000000    
  -5.4157835059148826E-002 -0.19585171586470940        0.00000000    
  -5.8639644001744144E-002 -0.18068010087263553        0.00000000    
  -5.4209460417723780E-002 -0.14719100047009723        0.00000000    
  -3.9438952895510006E-002 -0.13579858544072890        0.00000000    
  -2.9366075257604932E-002 -0.14239179029909660        0.00000000    
  -2.1381411261592473E-002 -0.15366748460898869        0.00000000    
   2.6348708880534039E-003 -0.14576620476951313        0.00000000    
   2.7630227936051095E-002 -0.14729041951196886        0.00000000    
   3.8025998395545109E-002 -0.15662380234191403        0.00000000    
   4.4468371823859577E-002 -0.16964224807894618        0.00000000    
   4.8596011292503578E-002 -0.18711431591543862        0.00000000    
   4.5744349493137888E-002 -0.20379787070321090        0.00000000    
   4.7098520845686276E-002 -0.20270533490754486        0.00000000    
   5.0280731391062886E-002 -0.21302658966199273        0.00000000    
   4.5339182221558361E-002 -0.21920842848712069        0.00000000    
   4.5594845758159412E-002 -0.20449433641015963        0.00000000    
   4.6892127493630344E-002 -0.19472170203601596        0.00000000    
   4.5525351001210447E-002 -0.16210772492366093        0.00000000    
   4.8739944284022958E-002 -0.12880183982446361        0.00000000    
   4.8449051046815378E-002 -0.10054025085792356        0.00000000    
   4.6127033515337777E-002  -5.5470469685770185E-002   0.00000000    
   3.3038530869979023E-002   1.8011559022987414E-002   0.00000000    
   3.5504930475303072E-002  0.15403410810486046        0.00000000    
   7.2652273421129371E-002  0.24516661156088063        0.00000000    
  0.10934872953763917       0.28871092756955830        0.00000000    
  0.13707018067364446       0.29588457552078229        0.00000000    
  0.13982981426177885       0.28046907673820626        0.00000000    
  0.12410684122070363       0.26558701917372668        0.00000000    
   9.9251246389544689E-002  0.25423677340182083        0.00000000    
   7.0058456807841910E-002  0.24583852851482399        0.00000000    
   3.5809716969231312E-002  0.23889572061342795        0.00000000    
   0.0000000000000000       0.23770709053158570        0.00000000    
   0.0000000000000000       0.27086805295017630        0.00000000    
  -2.7036131685928541E-002  0.27329213216431303        0.00000000    
  -5.1638366379323591E-002  0.27998395418684696        0.00000000    
  -7.0707679656814626E-002  0.29040755528037832        0.00000000    
  -8.0201826488713171E-002  0.30161076614043758        0.00000000    
  -7.5164582359524473E-002  0.30698945997504801        0.00000000    
  -5.5784915415846070E-002  0.29533803603972764        0.00000000    
  -2.5449234438183900E-002  0.25798406890759895        0.00000000    
   4.7902131421413349E-003  0.18754475343477733        0.00000000    
   2.0226040207372765E-002   9.6297397626038006E-002   0.00000000    
   1.9022594983022906E-002   5.0648103122062395E-003   0.00000000    
   4.2846106341133715E-003  -6.6476860406320490E-002   0.00000000    
  -7.7545145725337631E-003 -0.11505400678044282        0.00000000    
  -1.8422812077108427E-002 -0.15203806925102484        0.00000000    
  -2.6345027257600136E-002 -0.17592034830324960        0.00000000    
  -3.0689652782105965E-002 -0.19776575067879959        0.00000000    
  -4.1182471970901559E-002 -0.21244687563065912        0.00000000    
  -5.0548505616040414E-002 -0.21163083538934299        0.00000000    
  -5.4104817636419070E-002 -0.20347585894041947        0.00000000    
  -5.6145004390706112E-002 -0.19341804424307674        0.00000000    
  -5.6623719994770380E-002 -0.17815324794778428        0.00000000    
  -5.0332347817354309E-002 -0.16043940915653432        0.00000000    
  -3.6916719928033283E-002 -0.15073631216595226        0.00000000    
  -2.1834287936678999E-002 -0.15260937320325102        0.00000000    
  -8.6419995319140727E-003 -0.16462685410568914        0.00000000    
   2.5810946074172458E-003 -0.17004621156220098        0.00000000    
   1.8086242678974088E-002 -0.16351091783897956        0.00000000    
   3.3162632951726813E-002 -0.16587546474725046        0.00000000    
   4.2820671139164566E-002 -0.17649099728947565        0.00000000    
   4.7285413766136750E-002 -0.18885794880065110        0.00000000    
   4.7692533224407085E-002 -0.19960969547707036        0.00000000    
   4.5986813988383932E-002 -0.20654196225035437        0.00000000    
   4.4285974982264879E-002 -0.21067133385859138        0.00000000    
   3.9627721102918255E-002 -0.21196388124187451        0.00000000    
   3.2507709866502331E-002 -0.20487453595579688        0.00000000    
   2.4816735469958613E-002 -0.18794780982955214        0.00000000    
   1.8368873691245114E-002 -0.16106697885929347        0.00000000    
   1.4394647744793675E-002 -0.12908295322546320        0.00000000    
   8.0843752535335201E-003  -9.3657971728809603E-002   0.00000000    
  -6.8337279844438688E-003  -4.5112628045896587E-002   0.00000000    
  -2.0527876924424090E-002   3.4436368967761186E-002   0.00000000    
  -1.3616986173828154E-002  0.12823200780309255        0.00000000    
   1.1602416991844503E-002  0.20860196575003137        0.00000000    
   4.3417435516316730E-002  0.25676409873825035        0.00000000    
   6.5210180907811402E-002  0.27831720782311742        0.00000000    
   7.6456650923034289E-002  0.28403034083096834        0.00000000    
   7.3947718529154244E-002  0.28025766051426704        0.00000000    
   6.2401876829024053E-002  0.27596756859090610        0.00000000    
   4.4464363183055765E-002  0.27123803655171308        0.00000000    
   2.3383401676016196E-002  0.26882591392052008        0.00000000    
   0.0000000000000000       0.26697001586806401        0.00000000    
   0.0000000000000000       0.29258567493529880        0.00000000    
  -1.5007988692936184E-002  0.29361863055646897        0.00000000    
  -2.7464221642242669E-002  0.29671592343581593        0.00000000    
  -3.4692644794438392E-002  0.29997332245953950        0.00000000    
  -3.3707599784435049E-002  0.30055410078165457        0.00000000    
  -2.3285572265157352E-002  0.29258685368389037        0.00000000    
  -3.6341250923822769E-003  0.27070952821303407        0.00000000    
   2.0610694297817887E-002  0.22803207636514278        0.00000000    
   4.1609854367892697E-002  0.16625813832561076        0.00000000    
   5.3336794034086241E-002   9.0421246002734226E-002   0.00000000    
   5.0841156786540283E-002   1.4640044406516369E-002   0.00000000    
   4.0470324646768807E-002  -5.0943278012690739E-002   0.00000000    
   2.4592434976659649E-002 -0.10267057429787556        0.00000000    
   1.0254584291764790E-002 -0.13941535354460188        0.00000000    
  -2.1053336228510871E-003 -0.16826093091495278        0.00000000    
  -1.4890087546309674E-002 -0.18829578861948915        0.00000000    
  -2.6200308707818937E-002 -0.20011379733994999        0.00000000    
  -3.6852506476509519E-002 -0.20394568226649690        0.00000000    
  -4.4604802317745454E-002 -0.19985240420188646        0.00000000    
  -4.8287813981349237E-002 -0.19131830056395474        0.00000000    
  -4.7714645120578054E-002 -0.18034744488382018        0.00000000    
  -4.1954775642424176E-002 -0.17029645387627595        0.00000000    
  -3.1426576490883838E-002 -0.16482309448726079        0.00000000    
  -1.7801616623401403E-002 -0.16722998274095080        0.00000000    
  -5.6412419024659587E-003 -0.17535890769389495        0.00000000    
   3.7392507451485626E-003 -0.17991774476116501        0.00000000    
   1.3724475221200292E-002 -0.17912975718784779        0.00000000    
   2.7007261897349682E-002 -0.17861580234747065        0.00000000    
   3.6783915916702957E-002 -0.18318535189622726        0.00000000    
   4.1061769078261055E-002 -0.19090618998262068        0.00000000    
   4.1458559549315113E-002 -0.19836536422462131        0.00000000    
   3.9190322569023758E-002 -0.20381233728670919        0.00000000    
   3.3981164985943176E-002 -0.20649096223326982        0.00000000    
   2.6588121627655351E-002 -0.20409295562981533        0.00000000    
   1.6712025255213547E-002 -0.19574935395928428        0.00000000    
   5.7360368154283792E-003 -0.17840602899006278        0.00000000    
  -4.7213406863255373E-003 -0.15370352041865912        0.00000000    
  -1.5424556837046228E-002 -0.12176896956934334        0.00000000    
  -2.8009757479385302E-002  -8.2076482251801627E-002   0.00000000    
  -4.1480073122429802E-002  -2.8305698642483317E-002   0.00000000    
  -4.8999962230889302E-002   3.8843477612006710E-002   0.00000000    
  -4.5682371346809088E-002  0.11359641752326294        0.00000000    
  -2.8491580039607244E-002  0.18082736155591206        0.00000000    
  -6.4002207070991846E-003  0.23063232507416678        0.00000000    
   1.4899706599410876E-002  0.26135630878790356        0.00000000    
   2.7739430065000598E-002  0.27690504638391961        0.00000000    
   3.3358980666863901E-002  0.28427233675184227        0.00000000    
   3.0966988033944921E-002  0.28589072668481869        0.00000000    
   2.3658073847194917E-002  0.28656130628895488        0.00000000    
   1.2559514924682710E-002  0.28568216461124069        0.00000000    
   0.0000000000000000       0.28605668177645882        0.00000000    
   0.0000000000000000       0.30307448059916398        0.00000000    
  -5.0325335063872000E-003  0.30317034709043611        0.00000000    
  -7.9298752019233906E-003  0.30251778154520992        0.00000000    
  -6.5779581298187634E-003  0.30004797042877979        0.00000000    
   4.1413499868263705E-004  0.29250231467248311        0.00000000    
   1.3665235649667078E-002  0.27696551162142696        0.00000000    
   3.1643215955646210E-002  0.24870144279543724        0.00000000    
   5.0714431306328280E-002  0.20672412704062285        0.00000000    
   6.6618483980799822E-002  0.15066287490446217        0.00000000    
   7.4054548096674958E-002   8.6853505640795900E-002   0.00000000    
   7.3064080294218778E-002   2.1693889817563393E-002   0.00000000    
   6.3019410893909458E-002  -3.7581621884408167E-002   0.00000000    
   4.9278524255937740E-002  -8.6413454118737756E-002   0.00000000    
   3.3450710868075280E-002 -0.12550680965151922        0.00000000    
   1.7842833951453203E-002 -0.15420167997728729        0.00000000    
   3.4083643419104011E-003 -0.17513581602455655        0.00000000    
  -1.0431653735637359E-002 -0.18812353069621179        0.00000000    
  -2.2017677930549723E-002 -0.19369772694695461        0.00000000    
  -3.0848169671843260E-002 -0.19351757193922078        0.00000000    
  -3.5913190594068958E-002 -0.18890510024106660        0.00000000    
  -3.6494908541061306E-002 -0.18275209612076876        0.00000000    
  -3.2741485359441158E-002 -0.17740509529934970        0.00000000    
  -2.5195947801898814E-002 -0.17578818977351690        0.00000000    
  -1.6019398360423053E-002 -0.17906639676389333        0.00000000    
  -6.9311550783572899E-003 -0.18477111167419039        0.00000000    
   3.3953864819217822E-003 -0.19021257498908065        0.00000000    
   1.5278384188927725E-002 -0.19070314914331057        0.00000000    
   2.3392472495364643E-002 -0.18843928537484503        0.00000000    
   2.9150238204881114E-002 -0.18889628859794286        0.00000000    
   3.2309068355335535E-002 -0.19263193659316330        0.00000000    
   3.1885932881793436E-002 -0.19661327261185266        0.00000000    
   2.8047383756459848E-002 -0.19945764279412240        0.00000000    
   2.1477690364908500E-002 -0.19906680575152563        0.00000000    
   1.2048906301736653E-002 -0.19469528469041500        0.00000000    
   6.3736019497061648E-004 -0.18385938241983443        0.00000000    
  -1.2015243693064849E-002 -0.16666740820206993        0.00000000    
  -2.5339245570770438E-002 -0.14166076182763471        0.00000000    
  -3.8890911788594322E-002 -0.10955684579230231        0.00000000    
  -5.2480092925776906E-002  -6.8114224249895453E-002   0.00000000    
  -6.3643718344282674E-002  -1.7634015583507034E-002   0.00000000    
  -6.9863824326308110E-002   4.1911789642732115E-002   0.00000000    
  -6.6773567266579625E-002  0.10412025754781429        0.00000000    
  -5.5979934798567520E-002  0.16231909775510955        0.00000000    
  -3.8711759171525952E-002  0.20978105391428500        0.00000000    
  -2.1769432757735595E-002  0.24396532622622219        0.00000000    
  -6.9937922706231025E-003  0.26668066499158377        0.00000000    
   1.9772686191886785E-003  0.27990610665109061        0.00000000    
   6.5861607193962897E-003  0.28804005731684607        0.00000000    
   6.5900105170339229E-003  0.29171704004455656        0.00000000    
   4.0801407326012144E-003  0.29413485956109703        0.00000000    
   0.0000000000000000       0.29424364248238577        0.00000000    
   0.0000000000000000       0.30489008224393938        0.00000000    
   2.5835449580038279E-003  0.30380373399263688        0.00000000    
   6.7509339994909524E-003  0.30061434729566344        0.00000000    
   1.3791102385454945E-002  0.29355931921888112        0.00000000    
   2.4510706631690249E-002  0.28127926850630586        0.00000000    
   3.8703710026318068E-002  0.26074445374069460        0.00000000    
   5.4848698988597649E-002  0.23079953140667395        0.00000000    
   7.0645206256802817E-002  0.18975831580933356        0.00000000    
   8.2411746511456566E-002  0.13995809320554517        0.00000000    
   8.8514477911974448E-002   8.4019491822329678E-002   0.00000000    
   8.6665341333567583E-002   2.7367508016013255E-002   0.00000000    
   7.8982327423996440E-002  -2.5527556773774076E-002   0.00000000    
   6.6058234535478030E-002  -7.1802539703559501E-002   0.00000000    
   5.1079376570403935E-002 -0.10931105271438478        0.00000000    
   3.5241626344744578E-002 -0.13895180977266283        0.00000000    
   1.9692725898211583E-002 -0.16040231617360351        0.00000000    