 <VTKFile type="UnstructuredGrid" version="0.1" byte_order="BigEndian">
 <UnstructuredGrid>
 <Piece NumberOfPoints="        2601 " NumberOfCells="        2500 ">
 <PointData Scalars="scalars">
 <DataArray type="Float32" NumberOfComponents="3" Name="Velocity" Format="ascii">
   0.0000000000000000        0.0000000000000000        0.00000000    
  -3.1557298616874528E-002   0.0000000000000000        0.00000000    
  -6.2627130481106116E-002   0.0000000000000000        0.00000000    
  -9.2849877036501577E-002   0.0000000000000000        0.00000000    
 -0.12163157510754541        0.0000000000000000        0.00000000    
 -0.14875299461391822        0.0000000000000000        0.00000000    
 -0.17354455763714238        0.0000000000000000        0.00000000    
 -0.19593252688025448        0.0000000000000000        0.00000000    
 -0.21521175439940249        0.0000000000000000        0.00000000    
 -0.23145324752601612        0.0000000000000000        0.00000000    
 -0.24396369569264079        0.0000000000000000        0.00000000    
 -0.25295359302532489        0.0000000000000000        0.00000000    
 -0.25779283239206124        0.0000000000000000        0.00000000    
 -0.25882234201360566        0.0000000000000000        0.00000000    
 -0.25552566653106068        0.0000000000000000        0.00000000    
 -0.24836117074857145        0.0000000000000000        0.00000000    
 -0.23696978717108463        0.0000000000000000        0.00000000    
 -0.22190938083729789        0.0000000000000000        0.00000000    
 -0.20300955288408734        0.0000000000000000        0.00000000    
 -0.18090332250110416        0.0000000000000000        0.00000000    
 -0.15562330589640763        0.0000000000000000        0.00000000    
 -0.12784565865882386        0.0000000000000000        0.00000000    
  -9.7801318013521293E-002   0.0000000000000000        0.00000000    
  -6.6169674827835923E-002   0.0000000000000000        0.00000000    
  -3.3357122561353945E-002   0.0000000000000000        0.00000000    
  -6.4420669251233342E-008   0.0000000000000000        0.00000000    
   3.3356994103142343E-002   0.0000000000000000        0.00000000    
   6.6169547144240060E-002   0.0000000000000000        0.00000000    
   9.7801191872860960E-002   0.0000000000000000        0.00000000    
  0.12784553434674767        0.0000000000000000        0.00000000    
  0.15562318411232012        0.0000000000000000        0.00000000    
  0.18090320383888780        0.0000000000000000        0.00000000    
  0.20300943798185170        0.0000000000000000        0.00000000    
  0.22190927006587549        0.0000000000000000        0.00000000    
  0.23696968094503229        0.0000000000000000        0.00000000    
  0.24836106946388634        0.0000000000000000        0.00000000    
  0.25552557071841414        0.0000000000000000        0.00000000    
  0.25882225159882744        0.0000000000000000        0.00000000    
  0.25779274800129226        0.0000000000000000        0.00000000    
  0.25295351478342332        0.0000000000000000        0.00000000    
  0.24396362390305573        0.0000000000000000        0.00000000    
  0.23145318224701406        0.0000000000000000        0.00000000    
  0.21521169608062521        0.0000000000000000        0.00000000    
  0.19593247565456820        0.0000000000000000        0.00000000    
  0.17354451351038894        0.0000000000000000        0.00000000    
  0.14875295772445621        0.0000000000000000        0.00000000    
  0.12163154548959895        0.0000000000000000        0.00000000    
   9.2849854724826444E-002   0.0000000000000000        0.00000000    
   6.2627115585445634E-002   0.0000000000000000        0.00000000    
   3.1557291182317392E-002   0.0000000000000000        0.00000000    
   0.0000000000000000        0.0000000000000000        0.00000000    
   0.0000000000000000        3.1708716874376909E-002   0.00000000    
  -3.1645231072384365E-002   3.1495270609386894E-002   0.00000000    
  -6.2864382608955383E-002   3.0795170531103162E-002   0.00000000    
  -9.3111849791393614E-002   2.9676500856673029E-002   0.00000000    
 -0.12209771323802728        2.8092518149458484E-002   0.00000000    
 -0.14918286521666169        2.6115510649015971E-002   0.00000000    
 -0.17422193796499563        2.3716582176670213E-002   0.00000000    
 -0.19651799401769093        2.0968899922013506E-002   0.00000000    
 -0.21607194677053165        1.7865736810101469E-002   0.00000000    
 -0.23217333159433290        1.4478597286268024E-002   0.00000000    
 -0.24496597462674083        1.0825949652158530E-002   0.00000000    
 -0.25377622358940460        6.9756520229372248E-003   0.00000000    
 -0.25888346667300854        2.9722853607846130E-003   0.00000000    
 -0.25970302633175862       -1.1217615312174342E-003   0.00000000    
 -0.25663884774643875       -5.2376384462612079E-003   0.00000000    
 -0.24924370027936579       -9.3205510978131498E-003   0.00000000    
 -0.23803083381081142       -1.3282245685096663E-002   0.00000000    
 -0.22272921642295399       -1.7078325134101919E-002   0.00000000    
 -0.20394056387026363       -2.0608702866234146E-002   0.00000000    
 -0.18159368002056239       -2.3842959172762718E-002   0.00000000    
 -0.15635078236861175       -2.6678503214861114E-002   0.00000000    
 -0.12834553100408827       -2.9102943759113466E-002   0.00000000    
  -9.8264623727708916E-002  -3.1020852764476341E-002   0.00000000    
  -6.6432310263779881E-002  -3.2441652639241279E-002   0.00000000    
  -3.3516223361539560E-002  -3.3285535402839857E-002   0.00000000    
  -6.4422352563996530E-008  -3.3586230602442757E-002   0.00000000    
   3.3516094718718720E-002  -3.3285535987851111E-002   0.00000000    
   6.6432182606172618E-002  -3.2441653814059258E-002   0.00000000    
   9.8264497372399104E-002  -3.1020854434891547E-002   0.00000000    
  0.12834540671453021       -2.9102945983034763E-002   0.00000000    
  0.15635066054937025       -2.6678505989245201E-002   0.00000000    
  0.18159356132371904       -2.3842962642648426E-002   0.00000000    
  0.20394044881473905       -2.0608706797648313E-002   0.00000000    
  0.22272910558725612       -1.7078329553328189E-002   0.00000000    
  0.23803072760663735       -1.3282250442764904E-002   0.00000000    
  0.24924359904426494       -9.3205562505859971E-003   0.00000000    
  0.25663875165960637       -5.2376439137962975E-003   0.00000000    
  0.25970293609198741       -1.1217673086125592E-003   0.00000000    
  0.25888338225918078        2.9722792882262527E-003   0.00000000    
  0.25377614540093468        6.9756457212693688E-003   0.00000000    
  0.24496590274000857        1.0825943199771355E-002   0.00000000    
  0.23217326643027544        1.4478590505396316E-002   0.00000000    
  0.21607188842538683        1.7865729811834673E-002   0.00000000    
  0.19651794266860076        2.0968892831133391E-002   0.00000000    
  0.17422189378933906        2.3716574995182878E-002   0.00000000    
  0.14918282824749440        2.6115503386721316E-002   0.00000000    
  0.12209768359386093        2.8092510815235377E-002   0.00000000    
   9.3111827525556773E-002   2.9676493506294300E-002   0.00000000    
   6.2864367721542302E-002   3.0795163087042082E-002   0.00000000    
   3.1645223619191858E-002   3.1495263158122670E-002   0.00000000    
   0.0000000000000000        3.1708709437890115E-002   0.00000000    
   0.0000000000000000        6.3655869726065531E-002   0.00000000    
  -3.1970816647742518E-002   6.3165561444142260E-002   0.00000000    
  -6.3450112090933930E-002   6.1824722606372957E-002   0.00000000    
  -9.4078683821846643E-002   5.9524383495491988E-002   0.00000000    
 -0.12325355204571559        5.6406762875260329E-002   0.00000000    
 -0.15075953429471836        5.2393795593272327E-002   0.00000000    
 -0.17591308797048077        4.7632318926431542E-002   0.00000000    
 -0.19864714116847781        4.2084667333444611E-002   0.00000000    
 -0.21823828782375840        3.5896463486874176E-002   0.00000000    
 -0.23476581494041937        2.9078176783884274E-002   0.00000000    
 -0.24751522868094242        2.1769820884441030E-002   0.00000000    
 -0.25670611258827686        1.4034307111352272E-002   0.00000000    
 -0.26168628493141011        6.0024388411075921E-003   0.00000000    
 -0.26280612895368055       -2.2111187239612540E-003   0.00000000    
 -0.25952869943648349       -1.0488497071959646E-002   0.00000000    
 -0.25232217093538722       -1.8669976687305176E-002   0.00000000    
 -0.24081107653492564       -2.6655389527509989E-002   0.00000000    
 -0.22556380134391962       -3.4252682926185503E-002   0.00000000    
 -0.20639965138239200       -4.1385756931640996E-002   0.00000000    
 -0.18396337123712880       -4.7847678867807879E-002   0.00000000    
 -0.15828443067004674       -5.3594231742661820E-002   0.00000000    
 -0.13005220828440073       -5.8423299308969300E-002   0.00000000    
  -9.9501469382794153E-002  -6.2330753890625146E-002   0.00000000    
  -6.7326068694421495E-002  -6.5138076366815803E-002   0.00000000    
  -3.3941903589733702E-002  -6.6887974472568709E-002   0.00000000    
  -6.4602735991969500E-008  -6.7440400318645080E-002   0.00000000    
   3.3941774776085946E-002  -6.6887975651288498E-002   0.00000000    
   6.7325940602700210E-002  -6.5138078655065268E-002   0.00000000    
   9.9501342848248825E-002  -6.2330757307082471E-002   0.00000000    
  0.13005208377599739       -5.8423303878742693E-002   0.00000000    
  0.15828430891034753       -5.3594237390214725E-002   0.00000000    
  0.18396325253500834       -4.7847685644502022E-002   0.00000000    
  0.20639953623254848       -4.1385764749842867E-002   0.00000000    
  0.22556369025088222       -3.4252691735257371E-002   0.00000000    
  0.24081096994454410       -2.6655399029512708E-002   0.00000000    
  0.25232206928404693       -1.8669987003858815E-002   0.00000000    
  0.25952860333193961       -1.0488508070779612E-002   0.00000000    
  0.26280603847000644       -2.2111304380031450E-003   0.00000000    
  0.26168620060669340        6.0024267202943788E-003   0.00000000    
  0.25670603435658568        1.4034294539554803E-002   0.00000000    
  0.24751515700342591        2.1769807846270198E-002   0.00000000    
  0.23476574988807467        2.9078163240948498E-002   0.00000000    
  0.21823822958300662        3.5896449620164729E-002   0.00000000    
  0.19864708979439535        4.2084653248282061E-002   0.00000000    
  0.17591304362622631        4.7632304535963892E-002   0.00000000    
  0.15075949725367099        5.2393781030260350E-002   0.00000000    
  0.12325352233572853        5.6406748185692135E-002   0.00000000    
   9.4078661478724485E-002   5.9524368755262957E-002   0.00000000    
   6.3450097224881749E-002   6.1824707696667015E-002   0.00000000    
   3.1970809231012566E-002   6.3165546574978707E-002   0.00000000    
   0.0000000000000000        6.3655854837554204E-002   0.00000000    
   0.0000000000000000        9.5951474814277349E-002   0.00000000    
  -3.2467390610413031E-002   9.5309497817904584E-002   0.00000000    
  -6.4505434956232427E-002   9.3199460148878810E-002   0.00000000    
  -9.5555617752544605E-002   8.9829734552995963E-002   0.00000000    
 -0.12533299841639989        8.5054994553032628E-002   0.00000000    
 -0.15317537583353288        7.9095257321913762E-002   0.00000000    
 -0.17894867787043789        7.1859046290007694E-002   0.00000000    
 -0.20192331223282770        6.3567960753318942E-002   0.00000000    
 -0.22211569929804312        5.4198036535691781E-002   0.00000000    
 -0.23877517024304815        4.3964934345168204E-002   0.00000000    
 -0.25206336803390311        3.2922006842525497E-002   0.00000000    
 -0.26126234602046766        2.1273314800899622E-002   0.00000000    
 -0.26667029161498967        9.1528802312473446E-003   0.00000000    
 -0.26765879561146888       -3.2518812101019119E-003   0.00000000    
 -0.26465109804876474       -1.5731531405285232E-002   0.00000000    
 -0.25716200111307158       -2.8121237794479628E-002   0.00000000    
 -0.24572493053044570       -4.0150964005461143E-002   0.00000000    
 -0.23004140987257007       -5.1686575152896104E-002   0.00000000    
 -0.21073518200890218       -6.2420913919317589E-002   0.00000000    
 -0.18772135976505469       -7.2261295882684429E-002   0.00000000    
 -0.16168699069813766       -8.0892596409131240E-002   0.00000000    
 -0.13276669873514133       -8.8276121214772671E-002   0.00000000    
 -0.10167500452453118       -9.4119037626755025E-002   0.00000000    
  -6.8750173518773730E-002  -9.8448696967289723E-002   0.00000000    
  -3.4689454856696327E-002 -0.10102091043956361        0.00000000    
  -6.4790002252780208E-008 -0.10193736624485462        0.00000000    
   3.4689325460463549E-002 -0.10102091219387947        0.00000000    
   6.8750045076181196E-002  -9.8448700355509677E-002   0.00000000    
  0.10167487742857806       -9.4119042847057424E-002   0.00000000    
  0.13276657384944807       -8.8276128217103400E-002   0.00000000    
  0.16168686840376409       -8.0892604964151030E-002   0.00000000    
  0.18772124076834884       -7.2261306107158585E-002   0.00000000    
  0.21073506665258843       -6.2420925482408969E-002   0.00000000    
  0.23004129848262994       -5.1686588240258728E-002   0.00000000    
  0.24572482361708725       -4.0150978208411250E-002   0.00000000    
  0.25716189927134181       -2.8121253420756463E-002   0.00000000    
  0.26465100159939298       -1.5731548033537209E-002   0.00000000    
  0.26765870502990013       -3.2518987833853909E-003   0.00000000    
  0.26667020693369614        9.1528619104423326E-003   0.00000000    
  0.26126226783725592        2.1273295837985619E-002   0.00000000    
  0.25206329625033486        3.2921987241652108E-002   0.00000000    
  0.23877510505660421        4.3964914142637861E-002   0.00000000    
  0.22211564085363827        5.4198015774943611E-002   0.00000000    
  0.20192326079203998        6.3567939691907396E-002   0.00000000    
  0.17894863359209354        7.1859024683516459E-002   0.00000000    
  0.15317533880283965        7.9095235424065782E-002   0.00000000    
  0.12533296872941047        8.5054972523535041E-002   0.00000000    
   9.5555595494359519E-002   8.9829712357026109E-002   0.00000000    
   6.4505420085655157E-002   9.3199437830234530E-002   0.00000000    
   3.2467383144705597E-002   9.5309475503485966E-002   0.00000000    
   0.0000000000000000        9.5951452488582292E-002   0.00000000    
   0.0000000000000000       0.12895723001170406        0.00000000    
  -3.3196388933673965E-002  0.12796879463332192        0.00000000    
  -6.5889690895282557E-002  0.12527278209082701        0.00000000    
  -9.7722914186398988E-002  0.12064109097169415        0.00000000    
 -0.12806616261707290       0.11436553944568480        0.00000000    
 -0.15671761334154616       0.10627981244469938        0.00000000    
 -0.18295141003836299        9.6682861681195484E-002   0.00000000    
 -0.20672180735484647        8.5490448332452132E-002   0.00000000    
 -0.22724959596148700        7.2996995790413952E-002   0.00000000    
 -0.24464016622696999        5.9217286857843256E-002   0.00000000    
 -0.25811386688470211        4.4432823173129889E-002   0.00000000    
 -0.26791855173484991        2.8767431017433707E-002   0.00000000    
 -0.27333380129256019        1.2483228688216540E-002   0.00000000    
 -0.27473893771741204       -4.1873204452969204E-003   0.00000000    
 -0.27153345480179747       -2.1008004054757230E-002   0.00000000    
 -0.26421504064464701       -3.7651008356091864E-002   0.00000000    
 -0.25235729129660012       -5.3914745704201579E-002   0.00000000    
 -0.23655984133066041       -6.9402497065228150E-002   0.00000000    
 -0.21661011073421585       -8.3959683654376865E-002   0.00000000    
 -0.19318755840067323       -9.7157634473403823E-002   0.00000000    
 -0.16631213502705353      -0.10890478417835416        0.00000000    
 -0.13671259736496241      -0.11878249741866194        0.00000000    
 -0.10463592172597308      -0.12677976574574967        0.00000000    
  -7.0819513000503875E-002 -0.13252794332145459        0.00000000    
  -3.5708939263675014E-002 -0.13611169129252157        0.00000000    
  -6.5113177009901606E-008 -0.13724358450880170        0.00000000    
   3.5708809336214856E-002 -0.13611169352950298        0.00000000    
   7.0819383815202336E-002 -0.13252794792280795        0.00000000    
  0.10463579428144490      -0.12677977284033151        0.00000000    
  0.13671247192513208      -0.11878250676167171        0.00000000    
  0.16631201233292345      -0.10890479572971498        0.00000000    
  0.19318743880030287       -9.7157648092964899E-002   0.00000000    
  0.21660999482129914       -8.3959699150227343E-002   0.00000000    
  0.23655972956855337       -6.9402514337015386E-002   0.00000000    
  0.25235718424753772       -5.3914764912354078E-002   0.00000000    
  0.26421493859193196       -3.7651029045142941E-002   0.00000000    
  0.27153335813877771       -2.1008026402288982E-002   0.00000000    
  0.27473884676477128       -4.1873438774834458E-003   0.00000000    
  0.27333371652881322        1.2483204137144641E-002   0.00000000    
  0.26791847323108359        2.8767405526722988E-002   0.00000000    
  0.25811379510666455        4.4432796974679965E-002   0.00000000    
  0.24464010116971993        5.9217259934976625E-002   0.00000000    
  0.22724953775274251        7.2996968159456124E-002   0.00000000    
  0.20672175615681754        8.5490420126916156E-002   0.00000000    
  0.18295136596188638        9.6682832934831847E-002   0.00000000    
  0.15671757647738827       0.10627978322675258        0.00000000    
  0.12806613302515429       0.11436551012034173        0.00000000    
   9.7722891861696401E-002  0.12064106137554849        0.00000000    
   6.5889676002841763E-002  0.12527275235248758        0.00000000    
   3.3196381479102414E-002  0.12796876489585798        0.00000000    
   0.0000000000000000       0.12895720018877391        0.00000000    
   0.0000000000000000       0.16263956040732069        0.00000000    
  -3.4080875699414856E-002  0.16156493969416913        0.00000000    
  -6.7727467037492245E-002  0.15801774105024288        0.00000000    
 -0.10035620196949865       0.15235930093517264        0.00000000    
 -0.13169432386296270       0.14432991020382874        0.00000000    
 -0.16103318805294356       0.13430696695545988        0.00000000    
 -0.18826393161844279       0.12212145730349049        0.00000000    
 -0.21259021293024535       0.10814974114165726        0.00000000    
 -0.23406215978642866        9.2338647611338295E-002   0.00000000    
 -0.25184601987405231        7.5051274463309642E-002   0.00000000    
 -0.26614144724185085        5.6369171917338458E-002   0.00000000    
 -0.27613817543752717        3.6633703522366563E-002   0.00000000    
 -0.28217365675439360        1.6068894445398232E-002   0.00000000    
 -0.28352774181791734       -5.0125574713188086E-003   0.00000000    
 -0.28066294888437782       -2.6251836466122010E-002   0.00000000    
 -0.27301412721294616       -4.7373205523024840E-002   0.00000000    
 -0.26115477599444636       -6.7908443646942054E-002   0.00000000    
 -0.24472866103334076       -8.7631158759045757E-002   0.00000000    
 -0.22440267684381923      -0.10600553216119757        0.00000000    
 -0.20006346900342520      -0.12287234171089910        0.00000000    
 -0.17244682970971714      -0.13768093575053034        0.00000000    
 -0.14169008647378523      -0.15036142301467886        0.00000000    
 -0.10856314130036954      -0.16040325763482921        0.00000000    
  -7.3434380327437682E-002 -0.16784841788763977        0.00000000    
  -3.7061118154020647E-002 -0.17227384960120240        0.00000000    
  -6.5513774057542178E-008 -0.17385014998488074        0.00000000    
   3.7060987403402315E-002 -0.17227385241400769        0.00000000    
   7.3434250774754170E-002 -0.16784842385326243        0.00000000    
  0.10856301312264371      -0.16040326648087327        0.00000000    
  0.14168996038518766      -0.15036143470005325        0.00000000    
  0.17244670616852270      -0.13768095025263033        0.00000000    
  0.20006334887490373      -0.12287235888615396        0.00000000    
  0.22440256060667493      -0.10600555168018574        0.00000000    
  0.24472854917469478       -8.7631180537003514E-002   0.00000000    
  0.26115466880217453       -6.7908467728343622E-002   0.00000000    
  0.27301402524254181       -4.7373231557042275E-002   0.00000000    
  0.28066285230018551       -2.6251864244595736E-002   0.00000000    
  0.28352765088946486       -5.0125868386830374E-003   0.00000000    
  0.28217357182747183        1.6068863639078380E-002   0.00000000    
  0.27613809695219371        3.6633671585333920E-002   0.00000000    
  0.26614137522723091        5.6369138968767010E-002   0.00000000    
  0.25184595477306893        7.5051240656139426E-002   0.00000000    
  0.23406210165957134        9.2338613042051126E-002   0.00000000    
  0.21259016185307925       0.10814970581404237        0.00000000    
  0.18826388765079999       0.12212142144812903        0.00000000    
  0.16103315106178837       0.13430693065770316        0.00000000    
  0.13169429408696581       0.14432987347089665        0.00000000    
  0.10035617974524641       0.15235926392765445        0.00000000    
   6.7727452188811224E-002  0.15801770391544157        0.00000000    
   3.4080868264621367E-002  0.16156490250140884        0.00000000    
   0.0000000000000000       0.16263952315032046        0.00000000    
   0.0000000000000000       0.19748674646192374        0.00000000    
  -3.5185987617801270E-002  0.19598576614498120        0.00000000    
  -6.9851637255417112E-002  0.19191030476173054        0.00000000    
 -0.10364689500028125       0.18489187885269001        0.00000000    
 -0.13589748873735294       0.17538719686256829        0.00000000    
 -0.16642800563953059       0.16312020987963313        0.00000000    
 -0.19444069886860166       0.14855279964889509        0.00000000    
 -0.21992996129140552       0.13153509035778305        0.00000000    
 -0.24202013221840524       0.11251656397399444        0.00000000    
 -0.26086455662715152        9.1502789590964584E-002   0.00000000    
 -0.27556951102952953        6.8919185500705443E-002   0.00000000    
 -0.28643356444263474        4.4945617583081861E-002   0.00000000    
 -0.29261561056872576        1.9975653784100971E-002   0.00000000    
 -0.29454531872279976       -5.6343785884423883E-003   0.00000000    
 -0.29150895560459994       -3.1530026500984944E-002   0.00000000    
 -0.28405374257686206       -5.7197906226445702E-002   0.00000000    
 -0.27166230001884023       -8.2333392882630363E-002   0.00000000    
 -0.25498518212620164      -0.10630829940499695        0.00000000    
 -0.23375322825937858      -0.12888518673009572        0.00000000    
 -0.20870192690632455      -0.14938205423059653        0.00000000    
 -0.17983524707752657      -0.16765340036966736        0.00000000    
 -0.14794625973207601      -0.18303354755473844        0.00000000    
 -0.11330504739297695      -0.19549814927894568        0.00000000    
  -7.6721861000171296E-002 -0.20446433263225514        0.00000000    
  -3.8695932631658055E-002 -0.21005598447281021        0.00000000    
  -6.5944450362912711E-008 -0.21182379363456671        0.00000000    
   3.8695801167144599E-002 -0.21005598798693245        0.00000000    
   7.6721730387326104E-002 -0.20446433994616409        0.00000000    
  0.11330491849676627      -0.19549815986829561        0.00000000    
  0.14794613287398381      -0.18303356162405454        0.00000000    
  0.17983512321650538      -0.16765341803229999        0.00000000    
  0.20870180642181255      -0.14938207503450149        0.00000000    
  0.23375311164491425      -0.12888521038185907        0.00000000    
  0.25498506980817720      -0.10630832572511842        0.00000000    
  0.27166219261670277       -8.2333422004129811E-002   0.00000000    
  0.28405364031491986       -5.7197937582428859E-002   0.00000000    
  0.29150885887600680       -3.1530059877054803E-002   0.00000000    
  0.29454522775704950       -5.6344137767941329E-003   0.00000000    
  0.29261552575732008        1.9975616642892453E-002   0.00000000    
  0.28643348605015245        4.4945579120425225E-002   0.00000000    
  0.27556943934830852        6.8919145895782033E-002   0.00000000    
  0.26086449155883662        9.1502748913602494E-002   0.00000000    
  0.24202007402989786       0.11251652242096438        0.00000000    
  0.21992991000276246       0.13153504806435412        0.00000000    
  0.19444065452985029       0.14855275669993157        0.00000000    
  0.16642796855215475       0.16312016644761371        0.00000000    
  0.13589745891723298       0.17538715278148331        0.00000000    
  0.10364687253002802       0.18489183429171219        0.00000000    
   6.9851622387180484E-002  0.19191026020279944        0.00000000    
   3.5185980186652518E-002  0.19598572152537383        0.00000000    
   0.0000000000000000       0.19748670176582697        0.00000000    
   0.0000000000000000       0.23329444582669415        0.00000000    
  -3.6417886455429940E-002  0.23178302852546576        0.00000000    
  -7.2398129622179869E-002  0.22676002272243242        0.00000000    
 -0.10732155168063713       0.21876192824656518        0.00000000    
 -0.14093934821140966       0.20738662489019258        0.00000000    
 -0.17247265101054990       0.19318568873073416        0.00000000    
 -0.20185719039792019       0.17588563995537360        0.00000000    
 -0.22819293980191829       0.15602834844306435        0.00000000    
 -0.25158772166276372       0.13350934440507128        0.00000000    
 -0.27107635633091659       0.10884415397772627        0.00000000    
 -0.28692198279294495        8.2129486734152143E-002   0.00000000    
 -0.29816616745299357        5.3844639168630484E-002   0.00000000    
 -0.30520993735257462        2.4303531897943240E-002   0.00000000    
 -0.30718423661384575       -6.0571656530400992E-003   0.00000000    
 -0.30461253736449301       -3.6714219261038086E-002   0.00000000    
 -0.29679904358259307       -6.7281337803986124E-002   0.00000000    
 -0.28437662151430909       -9.7062744499395559E-002   0.00000000    
 -0.26689479283736434      -0.12573681302098111        0.00000000    
 -0.24508248821549067      -0.15249985118859033        0.00000000    
 -0.21878098999612813      -0.17711910903547876        0.00000000    
 -0.18879622253436334      -0.19876671329314083        0.00000000    
 -0.15527205692896207      -0.21733230811592119        0.00000000    
 -0.11906011607314385      -0.23205146297110860        0.00000000    
  -8.0579963905695579E-002 -0.24297327862615331        0.00000000    
  -4.0680710588391865E-002 -0.24947114156096711        0.00000000    
  -6.6400629241479833E-008 -0.25178406884186499        0.00000000    
   4.0680578094201586E-002 -0.24947114580654514        0.00000000    
   8.0579832522434419E-002 -0.24297328717120348        0.00000000    
  0.11905998615787021      -0.23205147551393993        0.00000000    
  0.15527192961028971      -0.21733232486647630        0.00000000    
  0.18879609805969166      -0.19876673411560644        0.00000000    
  0.21878086891961748      -0.17711913345422131        0.00000000    
  0.24508237106656175      -0.15249987902314616        0.00000000    
  0.26689468035926572      -0.12573684412558062        0.00000000    
  0.28437651387484009       -9.7062778590934429E-002   0.00000000    
  0.29679894120737438       -6.7281374594376275E-002   0.00000000    
  0.30461244050231112       -3.6714258249087799E-002   0.00000000    
  0.30718414571152020       -6.0572069521120011E-003   0.00000000    
  0.30520985257645428        2.4303488586904193E-002   0.00000000    
  0.29816608909405823        5.3844594039694785E-002   0.00000000    
  0.28692191100681758        8.2129440511437349E-002   0.00000000    
  0.27107629128546434       0.10884410656457313        0.00000000    
  0.25158766331001192       0.13350929601532283        0.00000000    
  0.22819288836326149       0.15602829917239319        0.00000000    
  0.20185714609981331       0.17588558989320965        0.00000000    
  0.17247261387895099       0.19318563799403010        0.00000000    
  0.14093931856053557       0.20738657336581012        0.00000000    
  0.10732152946103032       0.21876187634774980        0.00000000    
   7.2398114686720499E-002  0.22675997061517328        0.00000000    
   3.6417879010854227E-002  0.23178297652621332        0.00000000    
   0.0000000000000000       0.23329439363451646        0.00000000    
   0.0000000000000000       0.27068893483413703        0.00000000    
  -3.7849433185129115E-002  0.26865688530654186        0.00000000    
  -7.5158717581060533E-002  0.26317671966936679        0.00000000    
 -0.11159444878961196       0.25370541042562883        0.00000000    
 -0.14642138517927342       0.24088890153892853        0.00000000    
 -0.17951004923283584       0.22430640424744380        0.00000000    
 -0.20995932052563893       0.20459976050037237        0.00000000    
 -0.23782997508956438       0.18152165640011983        0.00000000    
 -0.26210406940761766       0.15568593723460505        0.00000000    
 -0.28301227181901845       0.12706542178680172        0.00000000    
 -0.29948927212511117        9.6231869312820198E-002   0.00000000    
 -0.31191319362131331        6.3411385181123769E-002   0.00000000    
 -0.31925847985262512        2.9126864482780304E-002   0.00000000    
 -0.32203056543185665       -6.1330921766931121E-003   0.00000000    
 -0.31934066108844306       -4.1898875117203971E-002   0.00000000    
 -0.31180637287986601       -7.7443443952238691E-002   0.00000000    