 <VTKFile type="UnstructuredGrid" version="0.1" byte_order="BigEndian">
 <UnstructuredGrid>
 <Piece NumberOfPoints="        2601 " NumberOfCells="        2500 ">
 <PointData Scalars="scalars">
 <DataArray type="Float32" NumberOfComponents="3" Name="Velocity" Format="ascii">
   0.0000000000000000        0.0000000000000000        0.00000000    
  -6.7831862447510716E-002   0.0000000000000000        0.00000000    
 -0.13478335511942807        0.0000000000000000        0.00000000    
 -0.20014313378149134        0.0000000000000000        0.00000000    
 -0.26287018891949099        0.0000000000000000        0.00000000    
 -0.32241247981397320        0.0000000000000000        0.00000000    
 -0.37760227358425136        0.0000000000000000        0.00000000    
 -0.42802798727194086        0.0000000000000000        0.00000000    
 -0.47245995997518669        0.0000000000000000        0.00000000    
 -0.51060944659625229        0.0000000000000000        0.00000000    
 -0.54128217219255459        0.0000000000000000        0.00000000    
 -0.56430663822326321        0.0000000000000000        0.00000000    
 -0.57864880417230835        0.0000000000000000        0.00000000    
 -0.58426963114406072        0.0000000000000000        0.00000000    
 -0.58043292241283795        0.0000000000000000        0.00000000    
 -0.56727091890072956        0.0000000000000000        0.00000000    
 -0.54447016257148817        0.0000000000000000        0.00000000    
 -0.51238968440203980        0.0000000000000000        0.00000000    
 -0.47121910797352812        0.0000000000000000        0.00000000    
 -0.42159899004342410        0.0000000000000000        0.00000000    
 -0.36423003924806652        0.0000000000000000        0.00000000    
 -0.30006415655875790        0.0000000000000000        0.00000000    
 -0.23023765607219041        0.0000000000000000        0.00000000    
 -0.15599556434434783        0.0000000000000000        0.00000000    
  -7.8763623543466887E-002   0.0000000000000000        0.00000000    
  -3.1313346073183145E-008   0.0000000000000000        0.00000000    
   7.8763561026995207E-002   0.0000000000000000        0.00000000    
  0.15599550241889407        0.0000000000000000        0.00000000    
  0.23023759483831105        0.0000000000000000        0.00000000    
  0.30006409632310793        0.0000000000000000        0.00000000    
  0.36422998037004306        0.0000000000000000        0.00000000    
  0.42159893301580181        0.0000000000000000        0.00000000    
  0.47121905302911221        0.0000000000000000        0.00000000    
  0.51238963173668128        0.0000000000000000        0.00000000    
  0.54447011248660326        0.0000000000000000        0.00000000    
  0.56727087169122226        0.0000000000000000        0.00000000    
  0.58043287830957724        0.0000000000000000        0.00000000    
  0.58426959026441649        0.0000000000000000        0.00000000    
  0.57864876669228071        0.0000000000000000        0.00000000    
  0.56430660420825796        0.0000000000000000        0.00000000    
  0.54128214123392160        0.0000000000000000        0.00000000    
  0.51060941880603317        0.0000000000000000        0.00000000    
  0.47245993543835091        0.0000000000000000        0.00000000    
  0.42802796562010503        0.0000000000000000        0.00000000    
  0.37760225497236477        0.0000000000000000        0.00000000    
  0.32241246410592123        0.0000000000000000        0.00000000    
  0.26287017636891180        0.0000000000000000        0.00000000    
  0.20014312452903313        0.0000000000000000        0.00000000    
  0.13478334905496611        0.0000000000000000        0.00000000    
   6.7831859447604559E-002   0.0000000000000000        0.00000000    
   0.0000000000000000        0.0000000000000000        0.00000000    
   0.0000000000000000        6.8058123874873061E-002   0.00000000    
  -6.7886022399839291E-002   6.7661224796424654E-002   0.00000000    
 -0.13497964444764937        6.6385353603592309E-002   0.00000000    
 -0.20031815799287450        6.4314402024188186E-002   0.00000000    
 -0.26327706314645349        6.1373021262283521E-002   0.00000000    
 -0.32274314380661906        5.7636812775402585E-002   0.00000000    
 -0.37824335379188745        5.3054652772202872E-002   0.00000000    
 -0.42856252591847144        4.7691694086784225E-002   0.00000000    
 -0.47335824219713640        4.1537455012386759E-002   0.00000000    
 -0.51139468914970565        3.4649937723050167E-002   0.00000000    
 -0.54244573338353252        2.7075290147680970E-002   0.00000000    
 -0.56536805751008756        1.8872956927234306E-002   0.00000000    
 -0.58005448993243747        1.0157097104480954E-002   0.00000000    
 -0.58558993293551986        1.0006272961676523E-003   0.00000000    
 -0.58201272848130159       -8.4130873770285122E-003   0.00000000    
 -0.56877393498681372       -1.7986257799226461E-002   0.00000000    
 -0.54610662235995411       -2.7480360627382194E-002   0.00000000    
 -0.51393776558752680       -3.6767525013472795E-002   0.00000000    
 -0.47275478964527251       -4.5584579245773152E-002   0.00000000    
 -0.42300941673326514       -5.3779464574247385E-002   0.00000000    
 -0.36549145558060259       -6.1106001340181099E-002   0.00000000    
 -0.30114320506646913       -6.7406686688566531E-002   0.00000000    
 -0.23106774490554929       -7.2493829492869130E-002   0.00000000    
 -0.15658117306135380       -7.6233390163652479E-002   0.00000000    
  -7.9053309472018371E-002  -7.8524970681061609E-002   0.00000000    
  -3.1205907096194933E-008  -7.9290456459361461E-002   0.00000000    
   7.9053247207365576E-002  -7.8524970938443545E-002   0.00000000    
  0.15658111107415576       -7.6233390774743032E-002   0.00000000    
  0.23106768371620726       -7.2493830371209267E-002   0.00000000    
  0.30114314491277688       -6.7406687844106777E-002   0.00000000    
  0.36549139689653581       -6.1106003011893027E-002   0.00000000    
  0.42300935976976306       -5.3779466473501771E-002   0.00000000    
  0.47275473482058000       -4.5584581568535384E-002   0.00000000    
  0.51393771335685379       -3.6767527563788385E-002   0.00000000    
  0.54610657282999442       -2.7480363358254135E-002   0.00000000    
  0.56877388804508278       -1.7986260531962169E-002   0.00000000    
  0.58201268436437392       -8.4130905753433596E-003   0.00000000    
  0.58558989221736868        1.0006238720886864E-003   0.00000000    
  0.58005445244088172        1.0157093902346946E-002   0.00000000    
  0.56536802318810908        1.8872953494766916E-002   0.00000000    
  0.54244570234933964        2.7075287235989117E-002   0.00000000    
  0.51139466111755016        3.4649934464289683E-002   0.00000000    
  0.47335821743859996        4.1537451744143555E-002   0.00000000    
  0.42856250444924582        4.7691691180714951E-002   0.00000000    
  0.37824333519991649        5.3054649761066344E-002   0.00000000    
  0.32274312833631852        5.7636809761032415E-002   0.00000000    
  0.26327705074040803        6.1373018054924178E-002   0.00000000    
  0.20031814873775791        6.4314398782496840E-002   0.00000000    
  0.13497963839380636        6.6385350456011877E-002   0.00000000    
   6.7886019444110990E-002   6.7661221781332853E-002   0.00000000    
   0.0000000000000000        6.8058120934328670E-002   0.00000000    
   0.0000000000000000       0.13630725971575497        0.00000000    
  -6.8129839627310562E-002  0.13542935306384754        0.00000000    
 -0.13538699123181155       0.13296940095163165        0.00000000    
 -0.20107735799725118       0.12876063663512968        0.00000000    
 -0.26415559904215175       0.12296533414620797        0.00000000    
 -0.32409325052765559       0.11544963271762679        0.00000000    
 -0.37970448971639670       0.10635468210555531        0.00000000    
 -0.43060331088836251        9.5611057264738591E-002   0.00000000    
 -0.47552763894773659        8.3339534593191850E-002   0.00000000    
 -0.51421085490149410        6.9568918351091871E-002   0.00000000    
 -0.54541370920356302        5.4411604376914099E-002   0.00000000    
 -0.56897757331482612        3.8024225969005614E-002   0.00000000    
 -0.58381642619949115        2.0532507270781711E-002   0.00000000    
 -0.58989047583407750        2.2361022849170342E-003   0.00000000    
 -0.58641456456863683       -1.6700286795387143E-002   0.00000000    
 -0.57350590321964412       -3.5845123326810530E-002   0.00000000    
 -0.55081796872477540       -5.4975353571531632E-002   0.00000000    
 -0.51868500731679090       -7.3572962907912209E-002   0.00000000    
 -0.47729062156608282       -9.1355116878468270E-002   0.00000000    
 -0.42724993966516528      -0.10779359672057932        0.00000000    
 -0.36928835491471407      -0.12257003106678656        0.00000000    
 -0.30434272500596060      -0.13523515422841276        0.00000000    
 -0.23359779962600660      -0.14548436507218462        0.00000000    
 -0.15830325032454656      -0.15302259385968017        0.00000000    
  -7.9941778662698249E-002 -0.15762372075466641        0.00000000    
  -3.0953874240831412E-008 -0.15918535106756665        0.00000000    
   7.9941716887935776E-002 -0.15762372129219587        0.00000000    
  0.15830318903411678      -0.15302259495241027        0.00000000    
  0.23359773887013399      -0.14548436680129875        0.00000000    
  0.30434266534686433      -0.13523515666560629        0.00000000    
  0.36928829681669739      -0.12257003448755038        0.00000000    
  0.42724988358249710      -0.10779360060669553        0.00000000    
  0.47729056761717387       -9.1355121486938251E-002   0.00000000    
  0.51868495581389096       -7.3572968212548981E-002   0.00000000    
  0.55081791979954731       -5.4975358826468514E-002   0.00000000    
  0.57350585707300294       -3.5845128902298150E-002   0.00000000    
  0.58641452128971350       -1.6700292843472343E-002   0.00000000    
  0.58989043532234231        2.2360955446428681E-003   0.00000000    
  0.58381638905218713        2.0532500793815210E-002   0.00000000    
  0.56897753921319949        3.8024219596114767E-002   0.00000000    
  0.54541367800431806        5.4411598215477003E-002   0.00000000    
  0.51421082710896315        6.9568911933324096E-002   0.00000000    
  0.47552761424717777        8.3339528118363385E-002   0.00000000    
  0.43060328927627839        9.5611051187467655E-002   0.00000000    
  0.37970447140002106       0.10635467609265555        0.00000000    
  0.32409323533035073       0.11544962646427696        0.00000000    
  0.26415558707349973       0.12296532788491869        0.00000000    
  0.20107734904427887       0.12876063028075896        0.00000000    
  0.13538698527707541       0.13296939471721891        0.00000000    
   6.8129836632181445E-002  0.13542934707786450        0.00000000    
   0.0000000000000000       0.13630725379524269        0.00000000    
   0.0000000000000000       0.20475165928440608        0.00000000    
  -6.8457901297202237E-002  0.20357403491718654        0.00000000    
 -0.13614938515994357       0.19977469488844030        0.00000000    
 -0.20211584265888866       0.19361350707339309        0.00000000    
 -0.26577516458988987       0.18485136627902204        0.00000000    
 -0.32599215554009020       0.17371958219184563        0.00000000    
 -0.38234522998389137       0.16005038460366797        0.00000000    
 -0.43356852911535687       0.14403881277724467        0.00000000    
 -0.47937036630298957       0.12563928092961207        0.00000000    
 -0.51843609927438905       0.10501945670900720        0.00000000    
 -0.55057781484444934        8.2306970341426589E-002   0.00000000    
 -0.57455193154195372        5.7668174250145081E-002   0.00000000    
 -0.59026573869033017        3.1442551004207335E-002   0.00000000    
 -0.59669807260026131        3.8337729198886453E-003   0.00000000    
 -0.59387174633863138       -2.4598865634327921E-002   0.00000000    
 -0.58115025148478472       -5.3575372610544077E-002   0.00000000    
 -0.55872439275921881       -8.2357570875256497E-002   0.00000000    
 -0.52647870902436211      -0.11056806535857640        0.00000000    
 -0.48484572920248942      -0.13738605590708194        0.00000000    
 -0.43429701539524890      -0.16235073044837567        0.00000000    
 -0.37557637753338341      -0.18469379805413075        0.00000000    
 -0.30970503820308942      -0.20392703550794417        0.00000000    
 -0.23777108680309780      -0.21947004034367645        0.00000000    
 -0.16120381255842892      -0.23089742250985251        0.00000000    
  -8.1404258984674696E-002 -0.23790859809932402        0.00000000    
  -3.0657335431919205E-008 -0.24024513072865566        0.00000000    
   8.1404197966398070E-002 -0.23790859906623371        0.00000000    
  0.16120375207524915      -0.23089742419263162        0.00000000    
  0.23777102718834667      -0.21947004288572741        0.00000000    
  0.30970497967828581      -0.20392703931892614        0.00000000    
  0.37557632039687050      -0.18469380305047653        0.00000000    
  0.43429695998319184      -0.16235073649871451        0.00000000    
  0.48484567612923429      -0.13738606282389115        0.00000000    
  0.52647865805356597      -0.11056807290334236        0.00000000    
  0.55872434420100137       -8.2357578880315752E-002   0.00000000    
  0.58115020575251386       -5.3575381040443598E-002   0.00000000    
  0.59387170355908270       -2.4598874648442379E-002   0.00000000    
  0.59669803291384271        3.8337632853241185E-003   0.00000000    
  0.59026570160928371        3.1442541451727007E-002   0.00000000    
  0.57455189767511461        5.7668164692881864E-002   0.00000000    
  0.55057778449025718        8.2306960949331778E-002   0.00000000    
  0.51843607200352670       0.10501944703185234        0.00000000    
  0.47937034232032666       0.12563927133399735        0.00000000    
  0.43356850828495441       0.14403880358002369        0.00000000    
  0.38234521213980815       0.16005037542868922        0.00000000    
  0.32599214087952844       0.17371957279798067        0.00000000    
  0.26577515294023973       0.18485135691868182        0.00000000    
  0.20211583404896166       0.19361349776266940        0.00000000    
  0.13614937937171126       0.19977468579044805        0.00000000    
   6.8457898414177903E-002  0.20357402592996621        0.00000000    
   0.0000000000000000       0.20475165048697580        0.00000000    
   0.0000000000000000       0.27373125666704984        0.00000000    
  -6.8937885802289781E-002  0.27199150365396491        0.00000000    
 -0.13702718891405127       0.26713929205183806        0.00000000    
 -0.20362739133902480       0.25881684837613428        0.00000000    
 -0.26768083015935623       0.24736206398515267        0.00000000    
 -0.32873305447703233       0.23247937726327875        0.00000000    
 -0.38554411257584104       0.21445599910466748        0.00000000    
 -0.43780999650526220       0.19312365729336403        0.00000000    
 -0.48417020574612996       0.16871775811863335        0.00000000    
 -0.52443155944670539       0.14126934012813139        0.00000000    
 -0.55721614650391726       0.11098466260754775        0.00000000    
 -0.58241136150282657        7.8161085209756648E-002   0.00000000    
 -0.59876813685555885        4.3021493012831515E-002   0.00000000    
 -0.60624960930852423        6.1699061203695721E-003   0.00000000    
 -0.60391432932740230       -3.2095337440276824E-002   0.00000000    
 -0.59183480719921466       -7.0878651755351491E-002   0.00000000    
 -0.56955741540202931      -0.10975627750986884        0.00000000    
 -0.53733659198613637      -0.14763460261344713        0.00000000    
 -0.49533656414100941      -0.18395126432455661        0.00000000    
 -0.44408606062049066      -0.21758347862243504        0.00000000    
 -0.38439230783556894      -0.24787418091052488        0.00000000    
 -0.31713514249328584      -0.27387389866198025        0.00000000    
 -0.24365839254972130      -0.29493262071273024        0.00000000    
 -0.16521582805366486      -0.31044342365473016        0.00000000    
  -8.3473597226330618E-002 -0.31990312458140585        0.00000000    
  -3.0003203416424428E-008 -0.32312714322417985        0.00000000    
   8.3473537202955847E-002 -0.31990312582774211        0.00000000    
  0.16521576851098957      -0.31044342607387876        0.00000000    
  0.24365833388523211      -0.29493262426502681        0.00000000    
  0.31713508504150323      -0.27387390376537191        0.00000000    
  0.38439225183423109      -0.24787418745319681        0.00000000    
  0.44408600625896172      -0.21758348649071282        0.00000000    
  0.49533651157522213      -0.18395127355797114        0.00000000    
  0.53733654196548464      -0.14763461248920309        0.00000000    
  0.56955736811564706      -0.10975628833078724        0.00000000    
  0.59183476269291080       -7.0878662975418019E-002   0.00000000    
  0.60391428782074619       -3.2095349616595430E-002   0.00000000    
  0.60624957045957284        6.1698938971733591E-003   0.00000000    
  0.59876810096805400        4.3021480482162935E-002   0.00000000    
  0.58241132877044921        7.8161072261345929E-002   0.00000000    
  0.55721611702546880       0.11098464984002306        0.00000000    
  0.52443153315603530       0.14126932755529728        0.00000000    
  0.48417018227717057       0.16871774530878608        0.00000000    
  0.43780997623327284       0.19312364496114387        0.00000000    
  0.38554409559956565       0.21445598678265310        0.00000000    
  0.32873304044852591       0.23247936488515702        0.00000000    
  0.26768081903669172       0.24736205169231421        0.00000000    
  0.20362738308005421       0.25881683609449063        0.00000000    
  0.13702718353401422       0.26713928022413586        0.00000000    
   6.8937883064877151E-002  0.27199149184862004        0.00000000    
   0.0000000000000000       0.27373124506730540        0.00000000    
   0.0000000000000000       0.34300482474231897        0.00000000    
  -6.9429939276078462E-002  0.34108697839353347        0.00000000    
 -0.13814796881415486       0.33485236748497504        0.00000000    
 -0.20520526566010405       0.32476248957197806        0.00000000    
 -0.27010918454189803       0.31037499721936668        0.00000000    
 -0.33168152559701347       0.29209222579193800        0.00000000    
 -0.38961189558813664       0.26958579404179261        0.00000000    
 -0.44253244739939551       0.24318151294761081        0.00000000    
 -0.49026551268670815       0.21275439049993469        0.00000000    
 -0.53133441742728371       0.17856417896748492        0.00000000    
 -0.56564314541765937       0.14078435000087630        0.00000000    
 -0.59173685541236798        9.9651533056373087E-002   0.00000000    
 -0.60956591164912621        5.5718085256063699E-002   0.00000000    
 -0.61787947692686929        9.2695589692642858E-003   0.00000000    
 -0.61667627233704936       -3.8732269280263118E-002   0.00000000    
 -0.60512513960129932       -8.7871170495629966E-002   0.00000000    
 -0.58332773687737749      -0.13683735070151332        0.00000000    
 -0.55107252689788355      -0.18502836159615380        0.00000000    
 -0.50866596372148631      -0.23096289663377173        0.00000000    
 -0.45662602617406339      -0.27386108896378064        0.00000000    
 -0.39558087941624537      -0.31233427288709964        0.00000000    
 -0.32673417695003604      -0.34551647836986482        0.00000000    
 -0.25111997421515753      -0.37237979838561813        0.00000000    
 -0.17042401295257217      -0.39213357717928959        0.00000000    
  -8.6093858472869877E-002 -0.40428416222407371        0.00000000    
  -2.9474672272696135E-008 -0.40831230792239503        0.00000000    
   8.6093799668801804E-002 -0.40428416359871838        0.00000000    
  0.17042395440310451      -0.39213358020542960        0.00000000    
  0.25111991667612799      -0.37237980321954783        0.00000000    
  0.32673412067636054      -0.34551648466968538        0.00000000    
  0.39558082451134963      -0.31233428105256733        0.00000000    
  0.45662597321098425      -0.27386109879088899        0.00000000    
  0.50866591292292573      -0.23096290786861623        0.00000000    
  0.55107247841893725      -0.18502837433523087        0.00000000    
  0.58332769096960224      -0.13683736396455190        0.00000000    
  0.60512509653688906       -8.7871184897020768E-002   0.00000000    
  0.61667623197191268       -3.8732283974180007E-002   0.00000000    
  0.61787943936352940        9.2695438041634302E-003   0.00000000    
  0.60956587708416732        5.5718069707471451E-002   0.00000000    
  0.59173682388685211        9.9651516931314146E-002   0.00000000    
  0.56564311702499148       0.14078433402322149        0.00000000    
  0.53133439201516042       0.17856416343645670        0.00000000    
  0.49026549030689709       0.21275437479425693        0.00000000    
  0.44253242808940813       0.24318149724442575        0.00000000    
  0.38961187938506830       0.26958577868810862        0.00000000    
  0.33168151220517739       0.29209221068648272        0.00000000    
  0.27010917380753474       0.31037498209054520        0.00000000    
  0.20520525763367953       0.32476247455468388        0.00000000    
  0.13814796346302047       0.33485235283869802        0.00000000    
   6.9429936727494784E-002  0.34108696396158672        0.00000000    
   0.0000000000000000       0.34300481048317832        0.00000000    
   0.0000000000000000       0.41304494815768750        0.00000000    
  -6.9999342506540066E-002  0.41047729329510435        0.00000000    
 -0.13919317077765439       0.40337506685854857        0.00000000    
 -0.20703540067505752       0.39114047293675630        0.00000000    
 -0.27244990258679275       0.37431659043118359        0.00000000    
 -0.33511547993319785       0.35238970584646379        0.00000000    
 -0.39370281437986338       0.32580717291495487        0.00000000    
 -0.44806162178052061       0.29424064645903192        0.00000000    
 -0.49666429168660797       0.25803214478831976        0.00000000    
 -0.53946445475290383       0.21715664345037219        0.00000000    
 -0.57484145140958576       0.17187876034204183        0.00000000    
 -0.60278677356447075       0.12259730317529002        0.00000000    
 -0.62175542676098128        6.9571171853627711E-002   0.00000000    
 -0.63173648022471729        1.3712236428596399E-002   0.00000000    
 -0.63149372359222489       -4.4619763903856614E-002   0.00000000    
 -0.62102947456180735      -0.10399791551170590        0.00000000    
 -0.59968101639957749      -0.16385532587556428        0.00000000    
 -0.56755232516312248      -0.22239314870035684        0.00000000    
 -0.52476922169688089      -0.27878663872207560        0.00000000    
 -0.47168082726000488      -0.33116454287655323        0.00000000    
 -0.40926065122595690      -0.37849500715778772        0.00000000    
 -0.33824959739371541      -0.41921236687994529        0.00000000    
 -0.26031037143883734      -0.45223620611436505        0.00000000    
 -0.17666478910213165      -0.47661758126577430        0.00000000    
  -8.9332346776245325E-002 -0.49146162374392516        0.00000000    
  -2.8833544927874135E-008 -0.49655986236791638        0.00000000    
   8.9332289133329523E-002 -0.49146162528802034        0.00000000    
  0.17666473194123403      -0.47661758485908157        0.00000000    
  0.26031031517917991      -0.45223621229280608        0.00000000    
  0.33824954241209909      -0.41921237437865094        0.00000000    
  0.40926059799142545      -0.37849501724023510        0.00000000    
  0.47168077597073810      -0.33116455467376432        0.00000000    
  0.52476917262735223      -0.27878665237107453        0.00000000    
  0.56755227851210166      -0.22239316376340224        0.00000000    
  0.59968097235250073      -0.16385534198975091        0.00000000    
  0.62102943310815295      -0.10399793249873662        0.00000000    
  0.63149368475328072       -4.4619781326118615E-002   0.00000000    
  0.63173644422841002        1.3712218347406106E-002   0.00000000    
  0.62175539375383604        6.9571153233580152E-002   0.00000000    
  0.60278674344722050       0.12259728419234751        0.00000000    
  0.57484142389236281       0.17187874148939358        0.00000000    
  0.53946443017093704       0.21715662487853554        0.00000000    
  0.49666427005157876       0.25803212614419874        0.00000000    
  0.44806160297109687       0.29424062779885896        0.00000000    
  0.39370279826664895       0.32580715471512911        0.00000000    
  0.33511546663219971       0.35238968796369974        0.00000000    
  0.27244989228649003       0.37431657242150101        0.00000000    
  0.20703539310762467       0.39114045535951408        0.00000000    
  0.13919316584998664       0.40337504945716274        0.00000000    
   6.9999339997607074E-002  0.41047727639697895        0.00000000    
   0.0000000000000000       0.41304493130720732        0.00000000    
   0.0000000000000000       0.48328577055911887        0.00000000    
  -7.0461733377400956E-002  0.48069864234818671        0.00000000    
 -0.14029799519817790       0.47218490320473255        0.00000000    
 -0.20857778324732426       0.45845374973583736        0.00000000    
 -0.27495213420979336       0.43879326092813031        0.00000000    
 -0.33818091106952697       0.41380848374106655        0.00000000    
 -0.39813924606804169       0.38293515739921302        0.00000000    
 -0.45330612077895566       0.34663943661975799        0.00000000    
 -0.50370618535164569       0.30463717998014034        0.00000000    
 -0.54761083410510225       0.25725751034031963        0.00000000    
 -0.58510398036978473       0.20464912466482987        0.00000000    
 -0.61438801984283320       0.14705738790057166        0.00000000    
 -0.63552036955864666        8.5213175305800470E-002   0.00000000    
 -0.64685864242442015        1.9390643410901031E-002   0.00000000    
 -0.64839069652193482       -4.9007791504810917E-002   0.00000000    
 -0.63893630340530960      -0.11952744957564886        0.00000000    
 -0.61845637199294901      -0.19015310296558255        0.00000000    
 -0.58655918155168885      -0.26012017649080799        0.00000000    
 -0.54332039537200816      -0.32708042556618461        0.00000000    
 -0.48934612473215344      -0.38993234774430913        0.00000000    
 -0.42502570240039550      -0.44646672868873205        0.00000000    
 -0.35191211536552763      -0.49536421568877320        0.00000000    
 -0.27088718317950838      -0.53504744586530140        0.00000000    
 -0.18411322524497922      -0.56422481319492201        0.00000000    
  -9.3054396135722292E-002 -0.58224459513229743        0.00000000    
  -2.8244289111875093E-008 -0.58816250904945266        0.00000000    
   9.3054340019740153E-002 -0.58224459707316290        0.00000000    
  0.18411316984552459      -0.56422481759000465        0.00000000    
  0.27088712854297275      -0.53504745290612654        0.00000000    
  0.35191206205429210      -0.49536422492843762        0.00000000    
  0.42502565091718159      -0.44646674060532726        0.00000000    
  0.48934607531529156      -0.38993236171899021        0.00000000    
  0.54332034807378682      -0.32708044137609282        0.00000000    
  0.58655913651670510      -0.26012019407469000        0.00000000    
  0.61845632961867547      -0.19015312182358812        0.00000000    
  0.63893626365568423      -0.11952746903693191        0.00000000    
  0.64839065952543506       -4.9007811820657693E-002   0.00000000    
  0.64685860824852448        1.9390622560052952E-002   0.00000000    
  0.63552033794695451        8.5213153902043509E-002   0.00000000    
  0.61438799081254347       0.14705736623004026        0.00000000    
  0.58510395400995863       0.20464910322927771        0.00000000    
  0.54761081065586059       0.25725748850554486        0.00000000    
  0.50370616481740882       0.30463715873701347        0.00000000    
  0.45330610296358620       0.34663941501411605        0.00000000    
  0.39813923100000459       0.38293513670131263        0.00000000    
  0.33818089864059397       0.41380846290505480        0.00000000    
  0.27495212452803158       0.43879324012382698        0.00000000    
  0.20857777617968318       0.45845372960622471        0.00000000    
  0.14029799048024943       0.47218488336623765        0.00000000    
   7.0461731052602866E-002  0.48069862307530342        0.00000000    
   0.0000000000000000       0.48328575124966350        0.00000000    
   0.0000000000000000       0.55434101701131988        0.00000000    
  -7.0893498465916499E-002  0.55099966239801523        0.00000000    
 -0.14104564803696146       0.54187332917002851        0.00000000    
 -0.21004977994122176       0.52605027776541458        0.00000000    
 -0.27680765899413273       0.50432999683647151        0.00000000    
 -0.34120121995699354       0.47589511844132482        0.00000000    
 -0.40177910068106287       0.44138577096767706        0.00000000    
 -0.45863924393572525       0.40021687192809752        0.00000000    
 -0.51001690489024953       0.35283850069022321        0.00000000    
 -0.55612451063232515       0.29906947257254929        0.00000000    
 -0.59498081270517644       0.23918763854358721        0.00000000    
 -0.62679004771066826       0.17361317394416859        0.00000000    
 -0.64954151920826830       0.10254223492249938        0.00000000    
 -0.66331984933273869        2.7179208775249073E-002   0.00000000    
 -0.66639352348230463       -5.2189607990352709E-002   0.00000000    
 -0.65868880278893127      -0.13350372866751162        0.00000000    