 <VTKFile type="UnstructuredGrid" version="0.1" byte_order="BigEndian">
 <UnstructuredGrid>
 <Piece NumberOfPoints="        2601 " NumberOfCells="        2500 ">
 <PointData Scalars="scalars">
 <DataArray type="Float32" NumberOfComponents="3" Name="Velocity" Format="ascii">
   0.0000000000000000        0.0000000000000000        0.00000000    
  -2.5388542721404585E-002   0.0000000000000000        0.00000000    
  -5.0390440755886584E-002   0.0000000000000000        0.00000000    
  -7.4676522494362130E-002   0.0000000000000000        0.00000000    
  -9.7820531208542089E-002   0.0000000000000000        0.00000000    
 -0.11956551060054391        0.0000000000000000        0.00000000    
 -0.13946689790557243        0.0000000000000000        0.00000000    
 -0.15735199453803539        0.0000000000000000        0.00000000    
 -0.17278261451439803        0.0000000000000000        0.00000000    
 -0.18567987998392926        0.0000000000000000        0.00000000    
 -0.19563931535456935        0.0000000000000000        0.00000000    
 -0.20268273369373629        0.0000000000000000        0.00000000    
 -0.20646780003554482        0.0000000000000000        0.00000000    
 -0.20712042940826092        0.0000000000000000        0.00000000    
 -0.20438756905164940        0.0000000000000000        0.00000000    
 -0.19849792454235970        0.0000000000000000        0.00000000    
 -0.18931057644645988        0.0000000000000000        0.00000000    
 -0.17714948927188476        0.0000000000000000        0.00000000    
 -0.16200127932347111        0.0000000000000000        0.00000000    
 -0.14427014589643797        0.0000000000000000        0.00000000    
 -0.12407550153573341        0.0000000000000000        0.00000000    
 -0.10187875702069329        0.0000000000000000        0.00000000    
  -7.7925672965184031E-002   0.0000000000000000        0.00000000    
  -5.2704571658955215E-002   0.0000000000000000        0.00000000    
  -2.6569441271342059E-002   0.0000000000000000        0.00000000    
  -9.9206390638276761E-008   0.0000000000000000        0.00000000    
   2.6569243236941834E-002   0.0000000000000000        0.00000000    
   5.2704374961325615E-002   0.0000000000000000        0.00000000    
   7.7925478276770099E-002   0.0000000000000000        0.00000000    
  0.10187856535216910        0.0000000000000000        0.00000000    
  0.12407531361875870        0.0000000000000000        0.00000000    
  0.14426996264424949        0.0000000000000000        0.00000000    
  0.16200110139974530        0.0000000000000000        0.00000000    
  0.17714931750610680        0.0000000000000000        0.00000000    
  0.18931041133809248        0.0000000000000000        0.00000000    
  0.19849776687136608        0.0000000000000000        0.00000000    
  0.20438741932820742        0.0000000000000000        0.00000000    
  0.20712028818248554        0.0000000000000000        0.00000000    
  0.20646766782548323        0.0000000000000000        0.00000000    
  0.20268261115870975        0.0000000000000000        0.00000000    
  0.19563920265654303        0.0000000000000000        0.00000000    
  0.18567977752106099        0.0000000000000000        0.00000000    
  0.17278252256258819        0.0000000000000000        0.00000000    
  0.15735191351400785        0.0000000000000000        0.00000000    
  0.13946682801570989        0.0000000000000000        0.00000000    
  0.11956545209001557        0.0000000000000000        0.00000000    
   9.7820484179924228E-002   0.0000000000000000        0.00000000    
   7.4676487112107059E-002   0.0000000000000000        0.00000000    
   5.0390417151120109E-002   0.0000000000000000        0.00000000    
   2.5388530905231736E-002   0.0000000000000000        0.00000000    
   0.0000000000000000        0.0000000000000000        0.00000000    
   0.0000000000000000        2.5521578452226166E-002   0.00000000    
  -2.5472506556622740E-002   2.5340927292751288E-002   0.00000000    
  -5.0584362063456567E-002   2.4774282674948269E-002   0.00000000    
  -7.4925529566606766E-002   2.3854422920759955E-002   0.00000000    
  -9.8200902972348084E-002   2.2566415433754924E-002   0.00000000    
 -0.11997055983529754        2.0949676915093304E-002   0.00000000    
 -0.14001819717318709        1.9000803629881796E-002   0.00000000    
 -0.15789704316257960        1.6764594692653328E-002   0.00000000    
 -0.17348033738530097        1.4250774953658667E-002   0.00000000    
 -0.18634068606902623        1.1508294396071905E-002   0.00000000    
 -0.19644913917463147        8.5610489761291774E-003   0.00000000    
 -0.20342598504225418        5.4606698409923639E-003   0.00000000    
 -0.20734540508058799        2.2452708196696591E-003   0.00000000    
 -0.20790376247575257       -1.0328300746578428E-003   0.00000000    
 -0.20527969926326145       -4.3226398562589002E-003   0.00000000    
 -0.19927136870963996       -7.5738818707745421E-003   0.00000000    
 -0.19015775216472314       -1.0725629760809707E-002   0.00000000    
 -0.17785862690122614       -1.3733129949790418E-002   0.00000000    
 -0.16274224232330661       -1.6530012142079317E-002   0.00000000    
 -0.14486087420606703       -1.9081037210181173E-002   0.00000000    
 -0.12465301101120166       -2.1320018393040856E-002   0.00000000    
 -0.10230307367828552       -2.3225211689091786E-002   0.00000000    
  -7.8292828237523052E-002  -2.4736666211160271E-002   0.00000000    
  -5.2926413627525350E-002  -2.5849398226562018E-002   0.00000000    
  -2.6695411773993351E-002  -2.6515282624105213E-002   0.00000000    
  -9.9249159850055662E-008  -2.6747920615334545E-002   0.00000000    
   2.6695213754727925E-002  -2.6515283481540607E-002   0.00000000    
   5.2926216801317996E-002  -2.5849399898955412E-002   0.00000000    
   7.8292633594129815E-002  -2.4736668730797037E-002   0.00000000    
  0.10230288192444602       -2.3225215078899342E-002   0.00000000    
  0.12465282307552034       -2.1320022572941518E-002   0.00000000    
  0.14486069078774771       -1.9081042212429650E-002   0.00000000    
  0.16274206433995395       -1.6530017903260925E-002   0.00000000    
  0.17785845498468525       -1.3733136413369339E-002   0.00000000    
  0.19015758713920486       -1.0725636845665035E-002   0.00000000    
  0.19927121099797560       -7.5738895371481587E-003   0.00000000    
  0.20527954952298560       -4.3226481088268331E-003   0.00000000    
  0.20790362125093442       -1.0328388352155635E-003   0.00000000    
  0.20734527290721291        2.2452615130688792E-003   0.00000000    
  0.20342586224258744        5.4606600988480226E-003   0.00000000    
  0.19644902638730488        8.5610388689314476E-003   0.00000000    
  0.18634058353650004        1.1508284013309281E-002   0.00000000    
  0.17348024543526350        1.4250764242872142E-002   0.00000000    
  0.15789696204038842        1.6764583647809101E-002   0.00000000    
  0.14001812722554927        1.9000792366005687E-002   0.00000000    
  0.11997050123888596        2.0949665448406846E-002   0.00000000    
   9.8200855960472039E-002   2.2566403833993158E-002   0.00000000    
   7.4925494215025062E-002   2.3854411213862621E-002   0.00000000    
   5.0584338417297085E-002   2.4774270898932499E-002   0.00000000    
   2.5472494722945362E-002   2.5340915467689028E-002   0.00000000    
   0.0000000000000000        2.5521566627435901E-002   0.00000000    
   0.0000000000000000        5.1238220737847971E-002   0.00000000    
  -2.5750912666756141E-002   5.0849098860476422E-002   0.00000000    
  -5.1111532647174274E-002   4.9739981191726221E-002   0.00000000    
  -7.5750582631497768E-002   4.7870336398742469E-002   0.00000000    
  -9.9236297112188843E-002   4.5312984253058630E-002   0.00000000    
 -0.12131078335135598        4.2048645433767178E-002   0.00000000    
 -0.14152196490051977        3.8162048079096976E-002   0.00000000    
 -0.15969706585095736        3.3658691013811491E-002   0.00000000    
 -0.17538852093564034        2.8632821565255259E-002   0.00000000    
 -0.18851808752658722        2.3117556373115009E-002   0.00000000    
 -0.19867054573593956        1.7214091384157946E-002   0.00000000    
 -0.20586913644061289        1.0984456721061759E-002   0.00000000    
 -0.20976029802314763        4.5334580079591106E-003   0.00000000    
 -0.21047247468239719       -2.0490911369671753E-003   0.00000000    
 -0.20774209809331978       -8.6594268004370825E-003   0.00000000    
 -0.20180195623459748       -1.5184175918018555E-002   0.00000000    
 -0.19250266109125552       -2.1526856248060638E-002   0.00000000    
 -0.18017424331057741       -2.7558055701303690E-002   0.00000000    
 -0.16479812047432851       -3.3196203239553974E-002   0.00000000    
 -0.14678673851339613       -3.8306205925166939E-002   0.00000000    
 -0.12625841874912955       -4.2829642568377277E-002   0.00000000    
 -0.10368477313226944       -4.6637780624935343E-002   0.00000000    
  -7.9314812232487569E-002  -4.9702913916991005E-002   0.00000000    
  -5.3648273278689020E-002  -5.1914714530620701E-002   0.00000000    
  -2.7046286751329487E-002  -5.3281565219536704E-002   0.00000000    
  -9.9297637497691956E-008  -5.3721748566519990E-002   0.00000000    
   2.7046088505079419E-002  -5.3281566905051363E-002   0.00000000    
   5.3648076345036884E-002  -5.1914717880590849E-002   0.00000000    
   7.9314617343413676E-002  -4.9702918986443821E-002   0.00000000    
  0.10368458128448058       -4.6637787395766434E-002   0.00000000    
  0.12625823070506478       -4.2829650989137227E-002   0.00000000    
  0.14678655512992292       -3.8306215864510496E-002   0.00000000    
  0.16479794232742154       -3.3196214735174250E-002   0.00000000    
  0.18017407136163716       -2.7558068695223481E-002   0.00000000    
  0.19250249592114821       -2.1526870472431649E-002   0.00000000    
  0.20180179853786689       -1.5184191232108270E-002   0.00000000    
  0.20774194830154580       -8.6594432816355770E-003   0.00000000    
  0.21047233344919891       -2.0491087429291540E-003   0.00000000    
  0.20976016575666620        4.5334395286011032E-003   0.00000000    
  0.20586901366762494        1.0984437284471312E-002   0.00000000    
  0.19867043271996918        1.7214071202046703E-002   0.00000000    
  0.18851798487403487        2.3117535447045662E-002   0.00000000    
  0.17538842895588386        2.8632800142488833E-002   0.00000000    
  0.15969698472308377        3.3658669001215946E-002   0.00000000    
  0.14152189485499597        3.8162025526067025E-002   0.00000000    
  0.12131072475368117        4.2048622457157132E-002   0.00000000    
   9.9236250052309016E-002   4.5312961040887723E-002   0.00000000    
   7.5750547217084213E-002   4.7870312998491711E-002   0.00000000    
   5.1111509019898430E-002   4.9739957616501712E-002   0.00000000    
   2.5750900838746104E-002   5.0849075222872679E-002   0.00000000    
   0.0000000000000000        5.1238197063909481E-002   0.00000000    
   0.0000000000000000        7.7289545216971275E-002   0.00000000    
  -2.6194795861867806E-002   7.6744815748566397E-002   0.00000000    
  -5.2023403326507532E-002   7.5034824536643091E-002   0.00000000    
  -7.7066789845894407E-002   7.2259262286918438E-002   0.00000000    
 -0.10102702729939507        6.8371342879295069E-002   0.00000000    
 -0.12345122626326448        6.3490304476620671E-002   0.00000000    
 -0.14412224529680917        5.7603921845524493E-002   0.00000000    
 -0.16257632566660016        5.0847330630325378E-002   0.00000000    
 -0.17868735450405557        4.3247997617195021E-002   0.00000000    
 -0.19200754385887606        3.4953467808477814E-002   0.00000000    
 -0.20250998990248745        2.6034415368129778E-002   0.00000000    
 -0.20979256643091176        1.6646630902303762E-002   0.00000000    
 -0.21393329807893141        6.9045075776331495E-003   0.00000000    
 -0.21460623609330357       -3.0336957626373607E-003   0.00000000    
 -0.21199647184585285       -1.3013633164098287E-002   0.00000000    
 -0.20588257100453786       -2.2882682657461247E-002   0.00000000    
 -0.19655353306383860       -3.2455353403588322E-002   0.00000000    
 -0.18391495092442919       -4.1595229511091132E-002   0.00000000    
 -0.16834937903087918       -5.0099395570688501E-002   0.00000000    
 -0.14990248915691834       -5.7859957042460060E-002   0.00000000    
 -0.12903139804076766       -6.4673974244343638E-002   0.00000000    
 -0.10592264867870295       -7.0474515996956560E-002   0.00000000    
  -8.1080004103052730E-002  -7.5077456301541709E-002   0.00000000    
  -5.4818242551118612E-002  -7.8467145031587679E-002   0.00000000    
  -2.7652316927107335E-002  -8.0495719359671300E-002   0.00000000    
  -9.9477027404789902E-008  -8.1204671853615518E-002   0.00000000    
   2.7652118444798833E-002  -8.0495721865957229E-002   0.00000000    
   5.4818045272243099E-002  -7.8467150076817552E-002   0.00000000    
   8.1079809016865428E-002  -7.5077463913001560E-002   0.00000000    
  0.10592245657419620       -7.0474526248747033E-002   0.00000000    
  0.12903120983646282       -6.4673986888070717E-002   0.00000000    
  0.14990230554262546       -5.7859972009440888E-002   0.00000000    
  0.16834920096172695       -5.0099412820379149E-002   0.00000000    
  0.18391477884742274       -4.1595248941054090E-002   0.00000000    
  0.19655336775501256       -3.2455374738930606E-002   0.00000000    
  0.20588241314020336       -2.2882705778449378E-002   0.00000000    
  0.21199632214990266       -1.3013657911740474E-002   0.00000000    
  0.21460609479098944       -3.0337220543689967E-003   0.00000000    
  0.21393316576601842        6.9044798279252473E-003   0.00000000    
  0.20979244353237611        1.6646601828190721E-002   0.00000000    
  0.20250987698555054        2.6034385084923131E-002   0.00000000    
  0.19200744115773793        3.4953436404285117E-002   0.00000000    
  0.17868726241662211        4.3247965386049435E-002   0.00000000    
  0.16257624453995753        5.0847297613433144E-002   0.00000000    
  0.14412217535945646        5.7603888025149451E-002   0.00000000    
  0.12345116760363678        6.3490270041779456E-002   0.00000000    
  0.10102698018776664        6.8371308039559001E-002   0.00000000    
   7.7066754426004774E-002   7.2259227177025820E-002   0.00000000    
   5.2023379657603674E-002   7.5034789132934709E-002   0.00000000    
   2.6194784016734540E-002   7.6744780316407829E-002   0.00000000    
   0.0000000000000000        7.7289509664442008E-002   0.00000000    
   0.0000000000000000       0.10392273687520708        0.00000000    
  -2.6829721107767188E-002  0.10313741213683075        0.00000000    
  -5.3258663178146697E-002  0.10090104873367112        0.00000000    
  -7.8949752948361332E-002   9.7128785317167995E-002   0.00000000    
 -0.10345500838749520        9.1968583600831849E-002   0.00000000    
 -0.12651422801868370        8.5377752990200659E-002   0.00000000    
 -0.14765287419610032        7.7527409056278473E-002   0.00000000    
 -0.16669833865519559        6.8424658448284631E-002   0.00000000    
 -0.18317469826449959        5.8259328277287935E-002   0.00000000    
 -0.19700584899529594        4.7094746874925250E-002   0.00000000    
 -0.20774378533908938        3.5134788128470214E-002   0.00000000    
 -0.21541607127512377        2.2502389601212897E-002   0.00000000    
 -0.21963460506909654        9.4092830921935090E-003   0.00000000    
 -0.22053529401642297       -3.9635760162110359E-003   0.00000000    
 -0.21782196678792509       -1.7405576318993376E-002   0.00000000    
 -0.21173946812794356       -3.0685871406851219E-002   0.00000000    
 -0.20211193234488964       -4.3607471006542456E-002   0.00000000    
 -0.18928747456105272       -5.5904884898443648E-002   0.00000000    
 -0.17323104593694577       -6.7410473972257093E-002   0.00000000    
 -0.15437993280052645       -7.7845615299825727E-002   0.00000000    
 -0.13284869325385737       -8.7089380466661412E-002   0.00000000    
 -0.10913993202998847       -9.4875354467695308E-002   0.00000000    
  -8.3512390665286693E-002 -0.10114553799822176        0.00000000    
  -5.6500701018383274E-002 -0.10567124894368482        0.00000000    
  -2.8487834087178882E-002 -0.10846914247513462        0.00000000    
  -9.9672591724721569E-008 -0.10936993513761752        0.00000000    
   2.8487635137867139E-002 -0.10846914584903862        0.00000000    
   5.6500503455060129E-002 -0.10567125571071821        0.00000000    
   8.3512195208630305E-002 -0.10114554818723348        0.00000000    
  0.10913973962498716       -9.4875368175270397E-002   0.00000000    
  0.13284850467967929       -8.7089397385629680E-002   0.00000000    
  0.15437974900278448       -7.7845635358014212E-002   0.00000000    
  0.17323086747535044       -6.7410497012028350E-002   0.00000000    
  0.18928730238029084       -5.5904910811306094E-002   0.00000000    
  0.20211176696286673       -4.3607499425905839E-002   0.00000000    
  0.21173931011315114       -3.0685902255541648E-002   0.00000000    
  0.21782181667019157       -1.7405609404377839E-002   0.00000000    
  0.22053515259842338       -3.9636110635717916E-003   0.00000000    
  0.21963447263905733        9.4092461207515698E-003   0.00000000    
  0.21541594841855827        2.2502350760981196E-002   0.00000000    
  0.20774367240440475        3.5134747707900781E-002   0.00000000    
  0.19700574643907470        4.7094705013831277E-002   0.00000000    
  0.18317460629266072        5.8259285304954417E-002   0.00000000    
  0.16669825762533330        6.8424614269810877E-002   0.00000000    
  0.14765280435492939        7.7527364019501485E-002   0.00000000    
  0.12651416948844679        8.5377707183100046E-002   0.00000000    
  0.10345496130551492        9.1968537137097087E-002   0.00000000    
   7.8949717546840617E-002   9.7128738459073771E-002   0.00000000    
   5.3258639504859817E-002  0.10090100159894239        0.00000000    
   2.6829709246933786E-002  0.10313736479946610        0.00000000    
   0.0000000000000000       0.10392268952191486        0.00000000    
   0.0000000000000000       0.13121492973908952        0.00000000    
  -2.7622152701547963E-002  0.13029830245447030        0.00000000    
  -5.4868053928847270E-002  0.12741621102242578        0.00000000    
  -8.1301480251990008E-002  0.12273934838268458        0.00000000    
 -0.10661991518140825       0.11618291997768643        0.00000000    
 -0.13034495840325802       0.10794888844664173        0.00000000    
 -0.15225872534663756        9.8009895400257008E-002   0.00000000    
 -0.17186337092868156        8.6593490689912206E-002   0.00000000    
 -0.18903473842245225        7.3739431285531620E-002   0.00000000    
 -0.20328348892597903        5.9695753077460924E-002   0.00000000    
 -0.21458709457087133        4.4576531418831007E-002   0.00000000    
 -0.22249716733658653        2.8644212320026494E-002   0.00000000    
 -0.22709931777134593        1.2089351390331893E-002   0.00000000    
 -0.22802100108274187       -4.8200654796415887E-003   0.00000000    
 -0.22545984941634942       -2.1822359709078955E-002   0.00000000    
 -0.21915304051901097       -3.8657189747467222E-002   0.00000000    
 -0.20940924986952272       -5.5006273788064559E-002   0.00000000    
 -0.19610367007310597       -7.0634914589863110E-002   0.00000000    
 -0.17964740531387591       -8.5191933020768149E-002   0.00000000    
 -0.16007149398362266       -9.8489976251593489E-002   0.00000000    
 -0.13787078572719236      -0.11017576323165096        0.00000000    
 -0.11323553907491370      -0.12013177563010502        0.00000000    
  -8.6714579543112444E-002 -0.12803641405316676        0.00000000    
  -5.8644387410961667E-002 -0.13386105107596222        0.00000000    
  -2.9588147044166659E-002 -0.13734724418889338        0.00000000    
  -9.9963081753286844E-008 -0.13856641149749804        0.00000000    
   2.9587947595239417E-002 -0.13734724843590534        0.00000000    
   5.8644189257464917E-002 -0.13386105965130679        0.00000000    
   8.6714383692497399E-002 -0.12803642684341596        0.00000000    
  0.11323534621891226      -0.12013179278271224        0.00000000    
  0.13787059678442620      -0.11017578444964614        0.00000000    
  0.16007130963780472       -9.8490001384140241E-002   0.00000000    
  0.17964722655315218       -8.5191961907422786E-002   0.00000000    
  0.19610349748371431       -7.0634947108008786E-002   0.00000000    
  0.20940908420293378       -5.5006309323687511E-002   0.00000000    
  0.21915288226027263       -3.8657228254980643E-002   0.00000000    
  0.22545969927193793       -2.1822401147027503E-002   0.00000000    
  0.22802085946537076       -4.8201094012141526E-003   0.00000000    
  0.22709918536927046        1.2089305089844311E-002   0.00000000    
  0.22249704450946745        2.8644163660408430E-002   0.00000000    
  0.21458698185775477        4.4576480781762851E-002   0.00000000    
  0.20328338646829636        5.9695700798966300E-002   0.00000000    
  0.18903464660276761        7.3739377508216436E-002   0.00000000    
  0.17186328998740449        8.6593435496033794E-002   0.00000000    
  0.15225865552588130        9.8009839069670285E-002   0.00000000    
  0.13034489992056322       0.10794883128435313        0.00000000    
  0.10661986816052088       0.11618286195907335        0.00000000    
   8.1301444784026178E-002  0.12273928984608355        0.00000000    
   5.4868030233662872E-002  0.12741615206518814        0.00000000    
   2.7622140861859906E-002  0.13029824327166223        0.00000000    
   0.0000000000000000       0.13121487053071684        0.00000000    
   0.0000000000000000       0.15946447550552692        0.00000000    
  -2.8597671592369915E-002  0.15826972867365230        0.00000000    
  -5.6778657700932107E-002  0.15487281980909282        0.00000000    
  -8.4198009455910772E-002  0.14913666520275767        0.00000000    
 -0.11038180036660536       0.14128897646196908        0.00000000    
 -0.13506770559144715       0.13125492759797294        0.00000000    
 -0.15774407344834804       0.11929513813346843        0.00000000    
 -0.17823996928785210       0.10540993606793408        0.00000000    
 -0.19603152292867471        8.9887053591042793E-002   0.00000000    
 -0.21104702826050339        7.2813532664055783E-002   0.00000000    
 -0.22278200681094815        5.4498481913782419E-002   0.00000000    
 -0.23127138407881986        3.5122857183040077E-002   0.00000000    
 -0.23606658518300944        1.5009203198897252E-002   0.00000000    
 -0.23731552054819230       -5.5681540772060459E-003   0.00000000    
 -0.23466405415849145       -2.6285744835252586E-002   0.00000000    
 -0.22837642797033911       -4.6787095972009543E-002   0.00000000    
 -0.21822893225564197       -6.6766510392477885E-002   0.00000000    
 -0.20459936524037581       -8.5808681820242649E-002   0.00000000    
 -0.18742219147221950      -0.10365046152390128        0.00000000    
 -0.16717638051690847      -0.11985202772167369        0.00000000    
 -0.14396849887389082      -0.13422115950118951        0.00000000    
 -0.11835410622112226      -0.14633487687691912        0.00000000    
  -9.0608079949286685E-002 -0.15609915693089449        0.00000000    
  -6.1325433009902987E-002 -0.16315000582480746        0.00000000    
  -3.0926964774535038E-002 -0.16751185665456722        0.00000000    
  -1.0024037273410143E-007 -0.16891556933944141        0.00000000    
   3.0926764703917489E-002 -0.16751186178894353        0.00000000    
   6.1325234309827767E-002 -0.16315001617876057        0.00000000    
   9.0607883468622114E-002 -0.15609917246482780        0.00000000    
  0.11835391298013923      -0.14633489752013812        0.00000000    
  0.14396830954052839      -0.13422118504942948        0.00000000    
  0.16717619592734470      -0.11985205786472315        0.00000000    
  0.18742201222299504      -0.10365049632548790        0.00000000    
  0.20459919227055501       -8.5808720874193029E-002   0.00000000    
  0.21822876608121825       -6.6766553110497215E-002   0.00000000    
  0.22837626946309730       -4.6787142372160501E-002   0.00000000    
  0.23466390371321152       -2.6285794556853904E-002   0.00000000    
  0.23731537877937417       -5.5682069186294243E-003   0.00000000    
  0.23606645261957260        1.5009147397581798E-002   0.00000000    
  0.23127126127616818        3.5122798688506658E-002   0.00000000    
  0.22278189388048994        5.4498421125431622E-002   0.00000000    
  0.21104692570819367        7.2813469903259459E-002   0.00000000    
  0.19603143103395063        8.9886989000443382E-002   0.00000000    
  0.17823988837506713       0.10540986982699113        0.00000000    
  0.15774400369102404       0.11929507057396239        0.00000000    
  0.13506764720119524       0.13125485895946779        0.00000000    
  0.11038175343237205       0.14128890700174421        0.00000000    
   8.4197974124617547E-002  0.14913659495190290        0.00000000    
   5.6778634152525473E-002  0.15487274901044049        0.00000000    
   2.8597659835961301E-002  0.15826965768476220        0.00000000    
   0.0000000000000000       0.15946440450713717        0.00000000    
   0.0000000000000000       0.18867406460942970        0.00000000    
  -2.9715346350143064E-002  0.18737424359507426        0.00000000    
  -5.9041960306248753E-002  0.18327699095541095        0.00000000    
  -8.7519924616695999E-002  0.17663089608588337        0.00000000    
 -0.11484257775455879       0.16730227535626901        0.00000000    
 -0.14049441688713030       0.15558045871286916        0.00000000    
 -0.16425889870575708       0.14141154196747890        0.00000000    
 -0.18558687991144232       0.12511849443965442        0.00000000    
 -0.20435891675596454       0.10674317036361014        0.00000000    
 -0.22002151311462512        8.6636602096272344E-002   0.00000000    
 -0.23255950635603001        6.4949468190467236E-002   0.00000000    
 -0.24145151770160089        4.2054343266459446E-002   0.00000000    
 -0.24679429644191170        1.8216780048008186E-002   0.00000000    
 -0.24814032829551785       -6.1796808070799496E-003   0.00000000    
 -0.24570507597634172       -3.0759854594191338E-002   0.00000000    
 -0.23915784522399733       -5.5146761127198546E-002   0.00000000    
 -0.22883577081450712       -7.8875333994219379E-002   0.00000000    
 -0.21456306442673265      -0.10160105044092307        0.00000000    
 -0.19679336289313468      -0.12280388761848293        0.00000000    
 -0.17553194677203468      -0.14220474828233223        0.00000000    
 -0.15133139997143369      -0.15927578745098739        0.00000000    
 -0.12438612069440194      -0.17383884105391806        0.00000000    
  -9.5315261655548156E-002 -0.18541099860845930        0.00000000    
  -6.4488950682867099E-002 -0.19394604268651136        0.00000000    
  -3.2546601090957292E-002 -0.19905555842753289        0.00000000    
  -1.0065896000497498E-007 -0.20084415336871969        0.00000000    
   3.2546400373387296E-002 -0.19905556457238718        0.00000000    
   6.4488751351897258E-002 -0.19394605478712909        0.00000000    
   9.5315064600674210E-002 -0.18541101689123499        0.00000000    
  0.12438592675289797      -0.17383886530134715        0.00000000    
  0.15133121001997957      -0.15927581729268808        0.00000000    
  0.17553176155073125      -0.14220478360587141        0.00000000    
  0.19679318346470712      -0.12280392837279602        0.00000000    
  0.21456289115601795      -0.10160109597926474        0.00000000    
  0.22883560461122637       -7.8875384090679679E-002   0.00000000    
  0.23915768653486835       -5.5146815330243550E-002   0.00000000    
  0.24570492549101566       -3.0759912778664585E-002   0.00000000    
  0.24814018658691131       -6.1797426388143792E-003   0.00000000    
  0.24679416411413771        1.8216714650788335E-002   0.00000000    
  0.24145139491534348        4.2054275065526885E-002   0.00000000    
  0.23255939349578575        6.4949397310306911E-002   0.00000000    
  0.22002141058421790        8.6636528719297876E-002   0.00000000    
  0.20435882502850472       0.10674309492865368        0.00000000    
  0.18558679912046175       0.12511841712464786        0.00000000    
  0.16425882917939061       0.14141146306195920        0.00000000    
  0.14049435874100918       0.15558037867305771        0.00000000    
  0.11484253118912593       0.16730219426064125        0.00000000    
   8.7519889697336054E-002  0.17663081422141647        0.00000000    
   5.9041936979600432E-002  0.18327690839477009        0.00000000    
   2.9715334665093934E-002  0.18737416093457307        0.00000000    
   0.0000000000000000       0.18867398184119086        0.00000000    
   0.0000000000000000       0.21919376352344597        0.00000000    
  -3.1001289120584800E-002  0.21757220464535518        0.00000000    
  -6.1567061578463436E-002  0.21297244079510277        0.00000000    
  -9.1345236304971197E-002  0.20519260958154600        0.00000000    
 -0.11982800691339093       0.19454700985274129        0.00000000    
 -0.14675388401432859       0.18091446434943828        0.00000000    
 -0.17156013224176436       0.16464929018974611        0.00000000    
 -0.19408131465092987       0.14573093314761335        0.00000000    
 -0.21372518472481389       0.12454766177024766        0.00000000    
 -0.23042815733359656       0.10119870223103772        0.00000000    
 -0.24360292864950289        7.6101155038852064E-002   0.00000000    
 -0.25329517130217255        4.9487932129434017E-002   0.00000000    
 -0.25896541857814187        2.1797238743281280E-002   0.00000000    
 -0.26077741337218224       -6.6010920745054559E-003   0.00000000    
 -0.25828789116644918       -3.5262197256835645E-002   0.00000000    
 -0.25178656000552191       -6.3691960546966644E-002   0.00000000    