 <VTKFile type="UnstructuredGrid" version="0.1" byte_order="BigEndian">
 <UnstructuredGrid>
 <Piece NumberOfPoints="        2601 " NumberOfCells="        2500 ">
 <PointData Scalars="scalars">
 <DataArray type="Float32" NumberOfComponents="3" Name="Velocity" Format="ascii">
   0.0000000000000000        0.0000000000000000        0.00000000    
  -7.9243168192286079E-002   0.0000000000000000        0.00000000    
 -0.15753940796374150        0.0000000000000000        0.00000000    
 -0.23410246533585374        0.0000000000000000        0.00000000    
 -0.30781744177035092        0.0000000000000000        0.00000000    
 -0.37803277704694149        0.0000000000000000        0.00000000    
 -0.44348677982424262        0.0000000000000000        0.00000000    
 -0.50362886548328401        0.0000000000000000        0.00000000    
 -0.55710940911741547        0.0000000000000000        0.00000000    
 -0.60345066418582161        0.0000000000000000        0.00000000    
 -0.64131868520848756        0.0000000000000000        0.00000000    
 -0.67030167346460301        0.0000000000000000        0.00000000    
 -0.68922994258555959        0.0000000000000000        0.00000000    
 -0.69778681166898715        0.0000000000000000        0.00000000    
 -0.69514650126694200        0.0000000000000000        0.00000000    
 -0.68115959133179971        0.0000000000000000        0.00000000    
 -0.65552120587786900        0.0000000000000000        0.00000000    
 -0.61835517483935931        0.0000000000000000        0.00000000    
 -0.57000153210947846        0.0000000000000000        0.00000000    
 -0.51096896285626903        0.0000000000000000        0.00000000    
 -0.44226350720998747        0.0000000000000000        0.00000000    
 -0.36485532301743823        0.0000000000000000        0.00000000    
 -0.28031039696775584        0.0000000000000000        0.00000000    
 -0.19006326676027538        0.0000000000000000        0.00000000    
  -9.6024751103125278E-002   0.0000000000000000        0.00000000    
   2.2607690901070321E-008   0.0000000000000000        0.00000000    
   9.6024796196778464E-002   0.0000000000000000        0.00000000    
  0.19006331151912231        0.0000000000000000        0.00000000    
  0.28031044104980801        0.0000000000000000        0.00000000    
  0.36485536626256748        0.0000000000000000        0.00000000    
  0.44226354907699578        0.0000000000000000        0.00000000    
  0.51096900360333442        0.0000000000000000        0.00000000    
  0.57000157143868557        0.0000000000000000        0.00000000    
  0.61835521236753521        0.0000000000000000        0.00000000    
  0.65552124086152752        0.0000000000000000        0.00000000    
  0.68115962462880686        0.0000000000000000        0.00000000    
  0.69514653296560658        0.0000000000000000        0.00000000    
  0.69778684127940216        0.0000000000000000        0.00000000    
  0.68922997000027475        0.0000000000000000        0.00000000    
  0.67030169846667220        0.0000000000000000        0.00000000    
  0.64131870790574630        0.0000000000000000        0.00000000    
  0.60345068415555303        0.0000000000000000        0.00000000    
  0.55710942625440363        0.0000000000000000        0.00000000    
  0.50362888033804054        0.0000000000000000        0.00000000    
  0.44348679252299161        0.0000000000000000        0.00000000    
  0.37803278757736614        0.0000000000000000        0.00000000    
  0.30781745004328787        0.0000000000000000        0.00000000    
  0.23410247137146331        0.0000000000000000        0.00000000    
  0.15753941183996475        0.0000000000000000        0.00000000    
   7.9243170101003485E-002   0.0000000000000000        0.00000000    
   0.0000000000000000        0.0000000000000000        0.00000000    
   0.0000000000000000        7.9460268366926365E-002   0.00000000    
  -7.9245625862094160E-002   7.9029992405485999E-002   0.00000000    
 -0.15763198645671411        7.7654074500933340E-002   0.00000000    
 -0.23412970433008765        7.5408166956290615E-002   0.00000000    
 -0.30803102139574740        7.2209592227644781E-002   0.00000000    
 -0.37814153746247497        6.8117724149369244E-002   0.00000000    
 -0.44387269589665057        6.3068901233726993E-002   0.00000000    
 -0.50390333260854769        5.7105284353317645E-002   0.00000000    
 -0.55772985464075597        5.0203243362514770E-002   0.00000000    
 -0.60398452323286200        4.2394141114941476E-002   0.00000000    
 -0.64222715397131913        3.3717970038390888E-002   0.00000000    
 -0.67117060475617918        2.4209926930556708E-002   0.00000000    
 -0.69044554685306159        1.3994740599086907E-002   0.00000000    
 -0.69901451720833696        3.1325535224901485E-003   0.00000000    
 -0.69662835615723284       -8.1575720115355556E-003   0.00000000    
 -0.68268718722023725       -1.9769055598548836E-002   0.00000000    
 -0.65715398722484231       -3.1401080300713730E-002   0.00000000    
 -0.62002897549527758       -4.2888514577557262E-002   0.00000000    
 -0.57160335341724766       -5.3889303922363303E-002   0.00000000    
 -0.51255899303665220       -6.4186180891151773E-002   0.00000000    
 -0.44361887326558774       -7.3457951031709476E-002   0.00000000    
 -0.36610436133061958       -8.1463302784037323E-002   0.00000000    
 -0.28121821184072199       -8.7966331400214093E-002   0.00000000    
 -0.19075098817678771       -9.2746581878382195E-002   0.00000000    
  -9.6344140108736973E-002  -9.5697341755307183E-002   0.00000000    
   2.2606839714768190E-008  -9.6670154843087788E-002   0.00000000    
   9.6344185174501412E-002  -9.5697341485663528E-002   0.00000000    
  0.19075103278444286       -9.2746581355109645E-002   0.00000000    
  0.28121825574312864       -8.7966330541443039E-002   0.00000000    
  0.36610440429288443       -8.1463301865744173E-002   0.00000000    
  0.44361891540804765       -7.3457949752075813E-002   0.00000000    
  0.51255903362037214       -6.4186179492101744E-002   0.00000000    
  0.57160339219642986       -5.3889302099016496E-002   0.00000000    
  0.62002901240263919       -4.2888512728051470E-002   0.00000000    
  0.65715402244905041       -3.1401077922547781E-002   0.00000000    
  0.68268722000128756       -1.9769053846905450E-002   0.00000000    
  0.69662838692212714       -8.1575701486791951E-003   0.00000000    
  0.69901454634496096        3.1325553761548121E-003   0.00000000    
  0.69044557407653284        1.3994742854276220E-002   0.00000000    
  0.67117062973312314        2.4209929334541632E-002   0.00000000    
  0.64222717610741098        3.3717972780070028E-002   0.00000000    
  0.60398454276462032        4.2394143705124718E-002   0.00000000    
  0.55772987190392087        5.0203245873669339E-002   0.00000000    
  0.50390334733204456        5.7105286664063906E-002   0.00000000    
  0.44387270842559162        6.3068903273545432E-002   0.00000000    
  0.37814154786982468        6.8117726399467671E-002   0.00000000    
  0.30803102964656948        7.2209594391562854E-002   0.00000000    
  0.23412971044958006        7.5408169161031560E-002   0.00000000    
  0.15763199048342713        7.7654076548359263E-002   0.00000000    
   7.9245627819498538E-002   7.9029994394875708E-002   0.00000000    
   0.0000000000000000        7.9460270243659578E-002   0.00000000    
   0.0000000000000000       0.15900442359058825        0.00000000    
  -7.9330735597843094E-002  0.15806360365130706        0.00000000    
 -0.15772926479610971       0.15540675790495811        0.00000000    
 -0.23443407149801326       0.15085941260235505        0.00000000    
 -0.30833238115729628       0.14455937732514665        0.00000000    
 -0.37880427693964758       0.13635175416856635        0.00000000    
 -0.44457490241439745       0.12633805763697023        0.00000000    
 -0.50512753656635134       0.11442080023573270        0.00000000    
 -0.55908159886143727       0.10066971218994472        0.00000000    
 -0.60598841270374204        8.5090553717787315E-002   0.00000000    
 -0.64446466987898965        6.7741843045525413E-002   0.00000000    
 -0.67411408756553126        4.8780318475632710E-002   0.00000000    
 -0.69370359256591607        2.8290190715629875E-002   0.00000000    
 -0.70291074445643509        6.6146184600570672E-003   0.00000000    
 -0.70084474267825381       -1.6090408634399020E-002   0.00000000    
 -0.68732685869894217       -3.9293882536067588E-002   0.00000000    
 -0.66200538761582994       -6.2729536798889762E-002   0.00000000    
 -0.62495778465423912       -8.5731286825316708E-002   0.00000000    
 -0.57651546138170029      -0.10791309271407198        0.00000000    
 -0.51713805507373911      -0.12858277595859907        0.00000000    
 -0.44786964258278061      -0.14726850680594966        0.00000000    
 -0.36964607042607167      -0.16338945083224482        0.00000000    
 -0.28410725440023904      -0.17646376963804897        0.00000000    
 -0.19268293872027289      -0.18613930448420044        0.00000000    
  -9.7367957562306526E-002 -0.19202507042800870        0.00000000    
   2.2404611468015217E-008 -0.19405319115514461        0.00000000    
   9.7368002370173221E-002 -0.19202507000909375        0.00000000    
  0.19268298314319532      -0.18613930326714495        0.00000000    
  0.28410729811404140      -0.17646376805869196        0.00000000    
  0.36964611333700059      -0.16338944889152279        0.00000000    
  0.44786968397821059      -0.14726850421343995        0.00000000    
  0.51713809503396291      -0.12858277287847808        0.00000000    
  0.57651549966502114      -0.10791308909035506        0.00000000    
  0.62495782098867059       -8.5731282955469834E-002   0.00000000    
  0.66200542180063093       -6.2729532608280278E-002   0.00000000    
  0.68732689113249124       -3.9293878402457627E-002   0.00000000    
  0.70084477290213720       -1.6090404927686302E-002   0.00000000    
  0.70291077258661061        6.6146221918444133E-003   0.00000000    
  0.69370361891230814        2.8290194789634134E-002   0.00000000    
  0.67411411162817092        4.8780323591083162E-002   0.00000000    
  0.64446469155468111        6.7741848303540783E-002   0.00000000    
  0.60598843208482933        8.5090558690573609E-002   0.00000000    
  0.55908161587727900       0.10066971695233613        0.00000000    
  0.50512755153135735       0.11442080488574700        0.00000000    
  0.44457491487039430       0.12633806204108694        0.00000000    
  0.37880428715304598       0.13635175841855735        0.00000000    
  0.30833238946262226       0.14455938155377365        0.00000000    
  0.23443407774745470       0.15085941692960331        0.00000000    
  0.15772926887194730       0.15540676209626123        0.00000000    
   7.9330737626261791E-002  0.15806360761354826        0.00000000    
   0.0000000000000000       0.15900442748029425        0.00000000    
   0.0000000000000000       0.23853061106450205        0.00000000    
  -7.9390530532243209E-002  0.23726002580122149        0.00000000    
 -0.15796200619974729       0.23318168390687904        0.00000000    
 -0.23470263381001069       0.22653126391692593        0.00000000    
 -0.30896232302296800       0.21704686727187739        0.00000000    
 -0.37953655753551441       0.20491173634146853        0.00000000    
 -0.44590474633677746       0.18991823056610255        0.00000000    
 -0.50670238784965094       0.17219224295094901        0.00000000    
 -0.56149280932260970       0.15164409188286937        0.00000000    
 -0.60882755169980907       0.12835906776199829        0.00000000    
 -0.64831601570464348       0.10243938608305771        0.00000000    
 -0.67855514490414182        7.3972656846696752E-002   0.00000000    
 -0.69918961753357578        4.3323162691943626E-002   0.00000000    
 -0.70904664897033876        1.0647160935029308E-002   0.00000000    
 -0.70784312824923845       -2.3391144368858752E-002   0.00000000    
 -0.69485818694781765       -5.8494644575316848E-002   0.00000000    
 -0.66997572554598950       -9.3731381574840067E-002   0.00000000    
 -0.63313391964849142      -0.12861752699608661        0.00000000    
 -0.58452147171605928      -0.16208030149518676        0.00000000    
 -0.52485091496840386      -0.19346220961115815        0.00000000    
 -0.45475342134590063      -0.22175366000481167        0.00000000    
 -0.37567224854073517      -0.24620772466791893        0.00000000    
 -0.28876354747383670      -0.26609169593004012        0.00000000    
 -0.19598905840891870      -0.28070886685027002        0.00000000    
  -9.9013755413347310E-002 -0.28974447662639385        0.00000000    
   2.2097599290393789E-008 -0.29271422715227202        0.00000000    
   9.9013799326301707E-002 -0.28974447592387842        0.00000000    
  0.19598910196814229      -0.28070886517813931        0.00000000    
  0.28876359047147121      -0.26609169353504880        0.00000000    
  0.37567229039706779      -0.24620772159865664        0.00000000    
  0.45475346204992684      -0.22175365587303578        0.00000000    
  0.52485095389468539      -0.19346220485735149        0.00000000    
  0.58452150864660024      -0.16208029587251174        0.00000000    
  0.63313395469816836      -0.12861752129544357        0.00000000    
  0.66997575902754669       -9.3731375497275574E-002   0.00000000    
  0.69485821843083373       -5.8494638578868330E-002   0.00000000    
  0.70784315791029939       -2.3391138493363051E-002   0.00000000    
  0.70904667655116904        1.0647166671973360E-002   0.00000000    
  0.69918964266869355        4.3323168990288541E-002   0.00000000    
  0.67855516808353666        7.3972663977282652E-002   0.00000000    
  0.64831603702277529       0.10243939357415062        0.00000000    
  0.60882757053216985       0.12835907528208376        0.00000000    
  0.56149282583514326       0.15164409878303553        0.00000000    
  0.50670240210633510       0.17219224976987479        0.00000000    
  0.44590475868237606       0.18991823722140402        0.00000000    
  0.37953656789835066       0.20491174256563691        0.00000000    
  0.30896233134872314       0.21704687347148194        0.00000000    
  0.23470264011372921       0.22653127035112025        0.00000000    
  0.15796201045438638       0.23318169021392052        0.00000000    
   7.9390532660212884E-002  0.23726003182181374        0.00000000    
   0.0000000000000000       0.23853061705224662        0.00000000    
   0.0000000000000000       0.31825901205948859        0.00000000    
  -7.9483744371092138E-002  0.31640718182821004        0.00000000    
 -0.15807962639553999       0.31120316756166577        0.00000000    
 -0.23510096239181075       0.30227302540993423        0.00000000    
 -0.30944195332912650       0.28990706708103492        0.00000000    
 -0.38058004822739477       0.27376514621567827        0.00000000    
 -0.44720205314006417       0.25405629402073560        0.00000000    
 -0.50889856470924899       0.23054961092048079        0.00000000    
 -0.56419686798832558       0.20337672607248339        0.00000000    
 -0.61274512046101903       0.17251070422288273        0.00000000    
 -0.65300989621780514       0.13804226396838229        0.00000000    
 -0.68465333654934590       0.10025362122177840        0.00000000    
 -0.70624454493883615        5.9269150580795710E-002   0.00000000    
 -0.71745354677695505        1.5768475572804391E-002   0.00000000    
 -0.71718078349888281       -2.9987475463141441E-002   0.00000000    
 -0.70516209634356974       -7.6900676394577247E-002   0.00000000    
 -0.68089119708629009      -0.12447744671605963        0.00000000    
 -0.64429937803008541      -0.17130382497394334        0.00000000    
 -0.59568824121634034      -0.21661632826657337        0.00000000    
 -0.53535564377150591      -0.25892807862916284        0.00000000    
 -0.46447275821895745      -0.29726691340245898        0.00000000    
 -0.38385424390694811      -0.33039290284101297        0.00000000    
 -0.29538608398681143      -0.35728212444404900        0.00000000    
 -0.20046635160818374      -0.37721140623545496        0.00000000    
 -0.10136243617634517      -0.38931990279844414        0.00000000    
   2.1641405105795357E-008 -0.39351378369492057        0.00000000    
  0.10136247924303837      -0.38931990159756752        0.00000000    
  0.20046639412999112      -0.37721140416306798        0.00000000    
  0.29538612579069995      -0.35728212116980573        0.00000000    
  0.38385428455520348      -0.33039289835406832        0.00000000    
  0.46447279732746061      -0.29726690799630556        0.00000000    
  0.53535568155009150      -0.25892807204207069        0.00000000    
  0.59568827742456287      -0.21661632091107988        0.00000000    
  0.64429941239550181      -0.17130381728244778        0.00000000    
  0.68089122944474600      -0.12447743905426659        0.00000000    
  0.70516212713523874       -7.6900668417028667E-002   0.00000000    
  0.71718081213664353       -2.9987467592881595E-002   0.00000000    
  0.71745357314746405        1.5768483662468146E-002   0.00000000    
  0.70624456904859501        5.9269159232884519E-002   0.00000000    
  0.68465335836755536       0.10025363024589377        0.00000000    
  0.65300991585818025       0.13804227360504456        0.00000000    
  0.61274513830499633       0.17251071387956929        0.00000000    
  0.56419688370317622       0.20337673528500330        0.00000000    
  0.50889857841809305       0.23054961968891002        0.00000000    
  0.44720206497387166       0.25405630251265698        0.00000000    
  0.38058005810634826       0.27376515454084405        0.00000000    
  0.30944196115957162       0.28990707526523257        0.00000000    
  0.23510096826359986       0.30227303384023052        0.00000000    
  0.15807963037338596       0.31120317581562912        0.00000000    
   7.9483746390027171E-002  0.31640718998746198        0.00000000    
   0.0000000000000000       0.31825902005547946        0.00000000    
   0.0000000000000000       0.39783214706101316        0.00000000    
  -7.9463066661542278E-002  0.39578207882930294        0.00000000    
 -0.15818768334040403       0.38914998998865197        0.00000000    
 -0.23519768876891964       0.37835876489897757        0.00000000    
 -0.30996052669154117       0.36292637621707707        0.00000000    
 -0.38125325682995964       0.34317788140359140        0.00000000    
 -0.44869853706037216       0.31871206208588326        0.00000000    
 -0.51084768151956894       0.28974071625182979        0.00000000    
 -0.56741301974049241       0.25605047803346404        0.00000000    
 -0.61678457132864972       0.21775797108592684        0.00000000    
 -0.65869366269141261       0.17497007709322129        0.00000000    
 -0.69149682794940959       0.12777362522147026        0.00000000    
 -0.71489111885805368        7.6735855309151391E-002   0.00000000    
 -0.72741096692247709        2.2031828545477406E-002   0.00000000    
 -0.72872037588835603       -3.5212977128294826E-002   0.00000000    
 -0.71782480175799490       -9.4588232273951287E-002   0.00000000    
 -0.69444645984028719      -0.15443793036815745        0.00000000    
 -0.65837667223092389      -0.21400374835344180        0.00000000    
 -0.60957655001221667      -0.27132646614736450        0.00000000    
 -0.54882871253000520      -0.32529717985596496        0.00000000    
 -0.47654594580136522      -0.37406227013174131        0.00000000    
 -0.39445883151822952      -0.41630198203801144        0.00000000    
 -0.30359161656732414      -0.45070722848456674        0.00000000    
 -0.20630089541520402      -0.47599556520898301        0.00000000    
 -0.10426683855801071      -0.49167252612421636        0.00000000    
   2.0905852601060814E-008 -0.49678928805593747        0.00000000    
  0.10426688017242371      -0.49167252450993060        0.00000000    
  0.20630093653388315      -0.47599556250938480        0.00000000    
  0.30359165688412720      -0.45070722431773941        0.00000000    
  0.39445887076467612      -0.41630197621766191        0.00000000    
  0.47654598352545224      -0.37406226299688000        0.00000000    
  0.54882874860325348      -0.32529717201682418        0.00000000    
  0.60957658470935960      -0.27132645709745018        0.00000000    
  0.65837670539571902      -0.21400373898121236        0.00000000    
  0.69444649111502532      -0.15443792049007971        0.00000000    
  0.71782483059957791       -9.4588222512744694E-002   0.00000000    
  0.72872040300154339       -3.5212967159388618E-002   0.00000000    
  0.72741099187391578        2.2031838965496649E-002   0.00000000    
  0.71489114152765565        7.6735866173472514E-002   0.00000000    
  0.69149684834841085       0.12777363659550464        0.00000000    
  0.65869368097078485       0.17497008867742908        0.00000000    
  0.61678458762983290       0.21775798256965667        0.00000000    
  0.56741303447239400       0.25605048911734990        0.00000000    
  0.51084769451056344       0.28974072689580765        0.00000000    
  0.44869854811571791       0.31871207251294253        0.00000000    
  0.38125326582049063       0.34317789181328939        0.00000000    
  0.30996053362956522       0.36292638641775876        0.00000000    
  0.23519769403963611       0.37835877493875547        0.00000000    
  0.15818768704432515       0.38915000009387302        0.00000000    
   7.9463068568703915E-002  0.39578208889296856        0.00000000    
   0.0000000000000000       0.39783215707868835        0.00000000    
   0.0000000000000000       0.47758185304480721        0.00000000    
  -7.9381911468164590E-002  0.47487851091189748        0.00000000    
 -0.15794948533075162       0.46734690828229414        0.00000000    
 -0.23514124577545090       0.45436477178104545        0.00000000    
 -0.30986457812485607       0.43640769859550482        0.00000000    
 -0.38176521106528749       0.41289108004829689        0.00000000    
 -0.44947012519597423       0.38415021519607961        0.00000000    
 -0.51276596803752328       0.34974870632335225        0.00000000    
 -0.57003022916201385       0.30987324236399372        0.00000000    
 -0.62110458377721001       0.26438226610438326        0.00000000    
 -0.66420095376351662       0.21335239542819243        0.00000000    
 -0.69912220413508608       0.15711687231379748        0.00000000    
 -0.72408339246144315        9.5749235757840515E-002   0.00000000    
 -0.73878134288312558        3.0237392523705112E-002   0.00000000    
 -0.74171924356376617       -3.9170087359748855E-002   0.00000000    
 -0.73250501404198898      -0.11073978395153110        0.00000000    
 -0.71031898425152462      -0.18384961077571030        0.00000000    
 -0.67482741866145357      -0.25615228369218207        0.00000000    
 -0.62626340944278069      -0.32654092702871962        0.00000000    
 -0.56460461738486289      -0.39248821511695292        0.00000000    
 -0.49128448017604098      -0.45247300750402286        0.00000000    
 -0.40684980663804382      -0.50441190253376655        0.00000000    
 -0.31369444302447275      -0.54661875824135531        0.00000000    
 -0.21309595289951747      -0.57797211923904790        0.00000000    
 -0.10785528170019515      -0.59696957356590041        0.00000000    
   1.9951127155593956E-008 -0.60361327541908250        0.00000000    
  0.10785532153198996      -0.59696957168386267        0.00000000    
  0.21309599215885372      -0.57797211573900797        0.00000000    
  0.31369448132009226      -0.54661875310937658        0.00000000    
  0.40684984376605260      -0.50441189544060150        0.00000000    
  0.49128451630052650      -0.45247299911609312        0.00000000    
  0.56460465205399402      -0.39248820542468638        0.00000000    
  0.62626344226245911      -0.32654091660637247        0.00000000    
  0.67482744971551245      -0.25615227239441629        0.00000000    
  0.71031901328474734      -0.18384959891227506        0.00000000    
  0.73250504134051075      -0.11073977200782478        0.00000000    
  0.74171926843237268       -3.9170075415030557E-002   0.00000000    
  0.73878136577946063        3.0237405101933488E-002   0.00000000    
  0.72408341343447269        9.5749248669096204E-002   0.00000000    
  0.69912222317587425       0.15711688584374048        0.00000000    
  0.66420097081239249       0.21335240896803420        0.00000000    
  0.62110459919868566       0.26438227923806978        0.00000000    
  0.57003024283650916       0.30987325511418645        0.00000000    
  0.51276597976219751       0.34974871899175203        0.00000000    
  0.44947013492323784       0.38415022753177769        0.00000000    
  0.38176521902616506       0.41289109238055788        0.00000000    
  0.30986458470050865       0.43640771031135667        0.00000000    
  0.23514125080352349       0.45436478352054271        0.00000000    
  0.15794948851146193       0.46734692010195483        0.00000000    
   7.9381913007980032E-002  0.47487852269877900        0.00000000    
   0.0000000000000000       0.47758186478624470        0.00000000    
   0.0000000000000000       0.55681001903184046        0.00000000    
  -7.9047593338737634E-002  0.55408094890376325        0.00000000    
 -0.15747567623055309       0.54514122592480874        0.00000000    
 -0.23436133169440937       0.53064896875301470        0.00000000    
 -0.30935004026329255       0.50983664038190912        0.00000000    
 -0.38119538696584832       0.48320921537431544        0.00000000    
 -0.44974859061604588       0.45009129371286660        0.00000000    
 -0.51344220366514748       0.41079817914760652        0.00000000    
 -0.57224692794241772       0.36489384850116380        0.00000000    
 -0.62431411498049649       0.31250429426536086        0.00000000    
 -0.66961777875773798       0.25363149139296681        0.00000000    
 -0.70613728505938456       0.18827962209663190        0.00000000    
 -0.73372061403432198       0.11713208980677599        0.00000000    
 -0.75040684788222833        4.0239807560548617E-002   0.00000000    
 -0.75583366128119278       -4.0806706133845683E-002   0.00000000    
 -0.74850283751007096      -0.12564713842513880        0.00000000    
 -0.72789497148332039      -0.21173507459327057        0.00000000    
 -0.69350435378504560      -0.29814792809112206        0.00000000    
 -0.64489441064048891      -0.38171816212217097        0.00000000    
 -0.58297362409824349      -0.46088948827979331        0.00000000    
 -0.50773401889890302      -0.53263040812630613        0.00000000    
 -0.42147580168467130      -0.59494632627913191        0.00000000    
 -0.32491373085682157      -0.64580070370669362        0.00000000    
 -0.22116382876640406      -0.68313750231149695        0.00000000    
 -0.11182249740229137      -0.70638512994997515        0.00000000    
   1.8826437639390678E-008 -0.71387447436510210        0.00000000    
  0.11182253492726750      -0.70638512786957819        0.00000000    
  0.22116386581185626      -0.68313749795783285        0.00000000    
  0.32491376680821410      -0.64580069737056223        0.00000000    
  0.42147583667885657      -0.59494631826530242        0.00000000    
  0.50773405280902417      -0.53263039857145256        0.00000000    
  0.58297365676064539      -0.46088947705137628        0.00000000    
  0.64489444197362222      -0.38171815005725185        0.00000000    
  0.69350438310608320      -0.29814791465821205        0.00000000    
  0.72789499896128118      -0.21173506100106590        0.00000000    
  0.74850286291614099      -0.12564712440360909        0.00000000    
  0.75583368474377088       -4.0806691893542621E-002   0.00000000    
  0.75040686944176416        4.0239821718507159E-002   0.00000000    
  0.73372063398690823       0.11713210466855789        0.00000000    
  0.70613730316757795       0.18827963745268420        0.00000000    
  0.66961779508321984       0.25363150688132452        0.00000000    
  0.62431412935899244       0.31250430902491927        0.00000000    
  0.57224694056048975       0.36489386313289013        0.00000000    
  0.51344221434320225       0.41079819382431187        0.00000000    
  0.44974859920019372       0.45009130813157722        0.00000000    
  0.38119539417985593       0.48320922876009142        0.00000000    
  0.30935004609614863       0.50983665381062337        0.00000000    
  0.23436133599072403       0.53064898186377341        0.00000000    
  0.15747567906840945       0.54514123967902950        0.00000000    
   7.9047594545405650E-002  0.55408096202816881        0.00000000    
   0.0000000000000000       0.55681003218223835        0.00000000    
   0.0000000000000000       0.63596628358980534        0.00000000    
  -7.8525276291773402E-002  0.63249859246781581        0.00000000    
 -0.15633532478372256       0.62296275216953179        0.00000000    
 -0.23303978587431795       0.60641859685197141        0.00000000    
 -0.30756628510312883       0.58358325765609209        0.00000000    
 -0.37980097786220396       0.55354367388609826        0.00000000    
 -0.44829601913946471       0.51680611604856708        0.00000000    
 -0.51314012087691485       0.47262210569655028        0.00000000    
 -0.57251296124680651       0.42124852003047769        0.00000000    
 -0.62659166698795732       0.36229654662923066        0.00000000    
 -0.67323112057442991       0.29578338648020958        0.00000000    
 -0.71253382258012332       0.22195096270822581        0.00000000    
 -0.74217556515842842       0.14068684664822367        0.00000000    
 -0.76200064266830791        5.3197385068749221E-002   0.00000000    
 -0.76984156203160281       -4.0495529921095431E-002   0.00000000    
 -0.76518507257263779      -0.13794460981118586        0.00000000    