 <VTKFile type="UnstructuredGrid" version="0.1" byte_order="BigEndian">
 <UnstructuredGrid>
 <Piece NumberOfPoints="        2601 " NumberOfCells="        2500 ">
 <PointData Scalars="scalars">
 <DataArray type="Float32" NumberOfComponents="3" Name="Velocity" Format="ascii">
   0.0000000000000000        0.0000000000000000        0.00000000    
  -9.1597417412750876E-002   0.0000000000000000        0.00000000    
 -0.18327836379744922        0.0000000000000000        0.00000000    
 -0.27572053336356295        0.0000000000000000        0.00000000    
 -0.36839208739482171        0.0000000000000000        0.00000000    
 -0.46261948814454656        0.0000000000000000        0.00000000    
 -0.55714680753872248        0.0000000000000000        0.00000000    
 -0.65408146695367020        0.0000000000000000        0.00000000    
 -0.75120747939630894        0.0000000000000000        0.00000000    
 -0.85161759819619653        0.0000000000000000        0.00000000    
 -0.95167175103384283        0.0000000000000000        0.00000000    
  -1.0556331256773883        0.0000000000000000        0.00000000    
  -1.1574975060127604        0.0000000000000000        0.00000000    
  -1.2623689360031176        0.0000000000000000        0.00000000    
  -1.3599401385998533        0.0000000000000000        0.00000000    
  -1.4533998193292146        0.0000000000000000        0.00000000    
  -1.5254870243726768        0.0000000000000000        0.00000000    
  -1.5700199865339723        0.0000000000000000        0.00000000    
  -1.5678438574797147        0.0000000000000000        0.00000000    
  -1.5024200680770714        0.0000000000000000        0.00000000    
  -1.3746591083289352        0.0000000000000000        0.00000000    
  -1.1735970234628341        0.0000000000000000        0.00000000    
 -0.92650352874187170        0.0000000000000000        0.00000000    
 -0.63449575955108140        0.0000000000000000        0.00000000    
 -0.32357999579916669        0.0000000000000000        0.00000000    
  -5.9852958531412424E-008   0.0000000000000000        0.00000000    
  0.32357987895650259        0.0000000000000000        0.00000000    
  0.63449565047754852        0.0000000000000000        0.00000000    
  0.92650343185032902        0.0000000000000000        0.00000000    
   1.1735969403854534        0.0000000000000000        0.00000000    
   1.3746590411922956        0.0000000000000000        0.00000000    
   1.5024200158101286        0.0000000000000000        0.00000000    
   1.5678438179003573        0.0000000000000000        0.00000000    
   1.5700199567226383        0.0000000000000000        0.00000000    
   1.5254870021931768        0.0000000000000000        0.00000000    
   1.4533998040337115        0.0000000000000000        0.00000000    
   1.3599401283897139        0.0000000000000000        0.00000000    
   1.2623689285266950        0.0000000000000000        0.00000000    
   1.1574975010057529        0.0000000000000000        0.00000000    
   1.0556331227045648        0.0000000000000000        0.00000000    
  0.95167174934099852        0.0000000000000000        0.00000000    
  0.85161759745224663        0.0000000000000000        0.00000000    
  0.75120747907943741        0.0000000000000000        0.00000000    
  0.65408146757057217        0.0000000000000000        0.00000000    
  0.55714680856555820        0.0000000000000000        0.00000000    
  0.46261948956402460        0.0000000000000000        0.00000000    
  0.36839208890133768        0.0000000000000000        0.00000000    
  0.27572053474681818        0.0000000000000000        0.00000000    
  0.18327836492160116        0.0000000000000000        0.00000000    
   9.1597417967316838E-002   0.0000000000000000        0.00000000    
   0.0000000000000000        0.0000000000000000        0.00000000    
   0.0000000000000000        9.1029093063109898E-002   0.00000000    
  -9.0642391084814464E-002   9.1212243340801899E-002   0.00000000    
 -0.18164078022288280        9.1468619756308239E-002   0.00000000    
 -0.27276438219732518        9.2098678778068169E-002   0.00000000    
 -0.36496813687433183        9.2778155891416553E-002   0.00000000    
 -0.45736920800905467        9.3851840729796812E-002   0.00000000    
 -0.55160666181720930        9.4914455356961441E-002   0.00000000    
 -0.64597911455086843        9.6394177663752093E-002   0.00000000    
 -0.74297058645672398        9.7724824650893452E-002   0.00000000    
 -0.83973129973412841        9.9447522325020188E-002   0.00000000    
 -0.93980536583726104       0.10068220713713975        0.00000000    
  -1.0385530581543285       0.10202836574008312        0.00000000    
  -1.1406795495031452       0.10196400527855420        0.00000000    
  -1.2384589697776482       0.10068833729614425        0.00000000    
  -1.3369648358775825        9.5390213667370841E-002   0.00000000    
  -1.4228776171481035        8.3983719550296210E-002   0.00000000    
  -1.4972891704993954        6.2516494785352206E-002   0.00000000    
  -1.5394694288848703        2.4198164340683406E-002   0.00000000    
  -1.5377321717064572       -2.8110133214935943E-002   0.00000000    
  -1.4778047468783710       -9.7239687733442645E-002   0.00000000    
  -1.3423225292162959      -0.16600212032346620        0.00000000    
  -1.1502756714408162      -0.22710547851409918        0.00000000    
 -0.89729528862956409      -0.27296707557028971        0.00000000    
 -0.61665460997754107      -0.29968006738202946        0.00000000    
 -0.31202308646504440      -0.31586592653118484        0.00000000    
  -5.9294848465411710E-008 -0.31973574974518121        0.00000000    
  0.31202297040811316      -0.31586593192720425        0.00000000    
  0.61665450141084110      -0.29968007724537293        0.00000000    
  0.89729519152312032      -0.27296708934919567        0.00000000    
   1.1502755896457566      -0.22710549386074672        0.00000000    
   1.3423224624243930      -0.16600213592071919        0.00000000    
   1.4778046949968759       -9.7239701916298729E-002   0.00000000    
   1.5377321323951429       -2.8110144289850134E-002   0.00000000    
   1.5394693999191034        2.4198155302022920E-002   0.00000000    
   1.4972891497783241        6.2516487947479854E-002   0.00000000    
   1.4228776018838940        8.3983714047307506E-002   0.00000000    
   1.3369648247348074        9.5390209963557904E-002   0.00000000    
   1.2384589624245863       0.10068833447652438        0.00000000    
   1.1406795446783251       0.10196400310051522        0.00000000    
   1.0385530550376783       0.10202836417576587        0.00000000    
  0.93980536428126660       0.10068220586081995        0.00000000    
  0.83973129928071566        9.9447521549862916E-002   0.00000000    
  0.74297058704993857        9.7724823952342166E-002   0.00000000    
  0.64597911534553099        9.6394177227080477E-002   0.00000000    
  0.55160666307159845        9.4914454923971325E-002   0.00000000    
  0.45736920940915055        9.3851840624435662E-002   0.00000000    
  0.36496813834049258        9.2778155843673438E-002   0.00000000    
  0.27276438358928190        9.2098679023275329E-002   0.00000000    
  0.18164078118161003        9.1468620203431786E-002   0.00000000    
   9.0642391652295096E-002   9.1212243854508990E-002   0.00000000    
   0.0000000000000000        9.1029093671447417E-002   0.00000000    
   0.0000000000000000       0.18046568660991810        0.00000000    
  -8.8105010832734046E-002  0.18052451802707806        0.00000000    
 -0.17622416525367546       0.18127535471095432        0.00000000    
 -0.26492492257058414       0.18211776844919728        0.00000000    
 -0.35363219864596801       0.18367156158323558        0.00000000    
 -0.44349761836343093       0.18522638892278337        0.00000000    
 -0.53323917038557267       0.18752037473788261        0.00000000    
 -0.62468864544714053       0.18961164522702806        0.00000000    
 -0.71561873873426740       0.19243037942758959        0.00000000    
 -0.80870578012352634       0.19459117541264756        0.00000000    
 -0.90033318288424091       0.19724147312607440        0.00000000    
 -0.99424325950023740       0.19812831300959807        0.00000000    
  -1.0845999815078824       0.19834871121614936        0.00000000    
  -1.1764030810451240       0.19388758220900401        0.00000000    
  -1.2599922704564332       0.18428744830592073        0.00000000    
  -1.3413307967025041       0.16233920318213774        0.00000000    
  -1.4034945168670996       0.12073768354538099        0.00000000    
  -1.4480516729402642        5.2715769504776425E-002   0.00000000    
  -1.4483907689103039       -5.8024541192883028E-002   0.00000000    
  -1.3862428484005442      -0.18939929073401493        0.00000000    
  -1.2597704941399035      -0.33579578496969431        0.00000000    
  -1.0534371866727064      -0.45569069689028152        0.00000000    
 -0.81705024570818019      -0.53374792657810954        0.00000000    
 -0.55110339941319153      -0.58548550219194662        0.00000000    
 -0.27764783954301536      -0.60814635048001286        0.00000000    
  -5.7801829862586569E-008 -0.61712491590999474        0.00000000    
  0.27764772605583771      -0.60814636052528048        0.00000000    
  0.55110329314794826      -0.58548552211820815        0.00000000    
  0.81705015138997716      -0.53374795370139616        0.00000000    
   1.0534371065391932      -0.45569072838862967        0.00000000    
   1.2597704304194008      -0.33579581583141771        0.00000000    
   1.3862427983491477      -0.18939931823191872        0.00000000    
   1.4483907311429944       -5.8024563807021243E-002   0.00000000    
   1.4480516452651147        5.2715751567629476E-002   0.00000000    
   1.4034944962687512       0.12073767028449467        0.00000000    
   1.3413307809345183       0.16233919381493747        0.00000000    
   1.2599922588896963       0.18428744014363246        0.00000000    
   1.1764030733268354       0.19388757620969541        0.00000000    
   1.0845999766661532       0.19834870681299585        0.00000000    
  0.99424325689940762       0.19812830972132378        0.00000000    
  0.90033318167985921       0.19724147061660519        0.00000000    
  0.80870578022833450       0.19459117345886767        0.00000000    
  0.71561873957269329       0.19243037812741315        0.00000000    
  0.62468864679272307       0.18961164468337541        0.00000000    
  0.53323917164040113       0.18752037404289937        0.00000000    
  0.44349762004135518       0.18522638851061099        0.00000000    
  0.35363220036086707       0.18367156173926233        0.00000000    
  0.26492492379320270       0.18211776905711838        0.00000000    
  0.17622416617525399       0.18127535552963139        0.00000000    
   8.8105011220273713E-002  0.18052451909451520        0.00000000    
   0.0000000000000000       0.18046568761954399        0.00000000    
   0.0000000000000000       0.26622637238644220        0.00000000    
  -8.3821440134983327E-002  0.26669168830695023        0.00000000    
 -0.16783300467667231       0.26724030808648713        0.00000000    
 -0.25170207658253602       0.26872404863524130        0.00000000    
 -0.33611940752481761       0.27019129152421556        0.00000000    
 -0.42014411780689714       0.27259819135418639        0.00000000    
 -0.50499691343202635       0.27474432012922395        0.00000000    
 -0.58895254098892169       0.27779420144688211        0.00000000    
 -0.67384138045628417       0.28006815153205322        0.00000000    
 -0.75683386451406132       0.28303432257971833        0.00000000    
 -0.84051757359324653       0.28411082653218223        0.00000000    
 -0.92039610203486966       0.28504895087224036        0.00000000    
  -1.0001215404135946       0.28151161245231104        0.00000000    
  -1.0725365926578627       0.27494420771936667        0.00000000    
  -1.1432394074539138       0.25752419084403244        0.00000000    
  -1.2003761340651966       0.22757907116940895        0.00000000    
  -1.2540117379419016       0.17129848056575081        0.00000000    
  -1.2799555018302502        7.2657220484775381E-002   0.00000000    
  -1.2846583090343009       -7.2922785402517398E-002   0.00000000    
  -1.2291011643488980      -0.29220483804193537        0.00000000    
  -1.0822406850852413      -0.50632182405675974        0.00000000    
 -0.89023379252178436      -0.68350365149418346        0.00000000    
 -0.64464299322410690      -0.78791152328578018        0.00000000    
 -0.42493591834958483      -0.81697466412088149        0.00000000    
 -0.22221379743735473      -0.85283371856603940        0.00000000    
  -5.4678854218211247E-008 -0.87229792809137507        0.00000000    
  0.22221369023311457      -0.85283373288125852        0.00000000    
  0.42493581667908709      -0.81697469253286936        0.00000000    
  0.64464290118052947      -0.78791156349730451        0.00000000    
  0.89023371482362967      -0.68350369843441461        0.00000000    
   1.0822406224571683      -0.50632187095969783        0.00000000    
   1.2291011182668972      -0.29220487971380676        0.00000000    
   1.2846582752646301       -7.2922818439109527E-002   0.00000000    
   1.2799554759909291        7.2657194947568601E-002   0.00000000    
   1.2540117176769274       0.17129846225377199        0.00000000    
   1.2003761191058553       0.22757905671730444        0.00000000    
   1.1432393969899866       0.25752417906998232        0.00000000    
   1.0725365849913280       0.27494419868597686        0.00000000    
   1.0001215355577031       0.28151160539603370        0.00000000    
  0.92039609951529100       0.28504894565987565        0.00000000    
  0.84051757310764008       0.28411082251638126        0.00000000    
  0.75683386529135221       0.28303431956018221        0.00000000    
  0.67384138224602463       0.28006814955156395        0.00000000    
  0.58895254317586754       0.27779420067917820        0.00000000    
  0.50499691579529260       0.27474431957272372        0.00000000    
  0.42014411976869920       0.27259819078189784        0.00000000    
  0.33611940928350359       0.27019129200649800        0.00000000    
  0.25170207818292717       0.26872404956748125        0.00000000    
  0.16783300576856527       0.26724030939038163        0.00000000    
   8.3821440830002730E-002  0.26669168982008051        0.00000000    
   0.0000000000000000       0.26622637403293209        0.00000000    
   0.0000000000000000       0.34749202947145064        0.00000000    
  -7.8235602076679137E-002  0.34748441746901626        0.00000000    
 -0.15630873282165880       0.34853361813294498        0.00000000    
 -0.23449826191505810       0.34949068267377298        0.00000000    
 -0.31213164402541249       0.35147671327921270        0.00000000    
 -0.38990219995505532       0.35310937679557591        0.00000000    
 -0.46649426852607317       0.35567933928028250        0.00000000    
 -0.54301733787033224       0.35733921673261870        0.00000000    
 -0.61727760277800370       0.35967357730537780        0.00000000    
 -0.69083106599400790       0.35997617647721519        0.00000000    
 -0.76020552597751045       0.36022847295163601        0.00000000    
 -0.82751912326541888       0.35612475519534853        0.00000000    
 -0.88734807620583522       0.34999152297524055        0.00000000    
 -0.94289542517622815       0.33442801288370633        0.00000000    
 -0.98556444181988034       0.31141352956174428        0.00000000    
  -1.0219997991499470       0.26726311549238613        0.00000000    
  -1.0369126038228209       0.20016414010597111        0.00000000    
  -1.0502848566884919        8.3108852245315543E-002   0.00000000    
  -1.0139144808641716      -0.11504072621202764        0.00000000    
 -0.94759209497911090      -0.37196520178934150        0.00000000    
 -0.81351131029992951      -0.70750155178349738        0.00000000    
 -0.56430557579903406      -0.92353540490768982        0.00000000    
 -0.38061670518366508      -0.97715834556296066        0.00000000    
 -0.23066084670320974      -0.99738968666980310        0.00000000    
  -9.8033125940896040E-002  -1.0077674607981071        0.00000000    
  -4.8604290776243025E-008  -1.0376099493405204        0.00000000    
   9.8033029729604884E-002  -1.0077674782640857        0.00000000    
  0.23066075364968203      -0.99738972062254005        0.00000000    
  0.38061661761489818      -0.97715839534542148        0.00000000    
  0.56430549907212291      -0.92353546746427317        0.00000000    
  0.81351125174596739      -0.70750161631311892        0.00000000    
  0.94759205074641129      -0.37196525670187081        0.00000000    
   1.0139144478536366      -0.11504076954246124        0.00000000    
   1.0502848313087401        8.3108821440814773E-002   0.00000000    
   1.0369125842542546       0.20016411567574974        0.00000000    
   1.0219997850487705       0.26726309638550033        0.00000000    
  0.98556443116014081       0.31141351450562227        0.00000000    
  0.94289541829812251       0.33442800055335964        0.00000000    
  0.88734807246069425       0.34999151327231026        0.00000000    
  0.82751912191681376       0.35612474789678578        0.00000000    
  0.76020552629339044       0.36022846732357355        0.00000000    
  0.69083106773854119       0.35997617237838936        0.00000000    
  0.61727760506936391       0.35967357484489998        0.00000000    
  0.54301734079399044       0.35733921541539809        0.00000000    
  0.46649427159625156       0.35567933895045667        0.00000000    
  0.38990220275086218       0.35310937667244652        0.00000000    
  0.31213164627199363       0.35147671406467579        0.00000000    
  0.23449826355935782       0.34949068406340722        0.00000000    
  0.15630873400872652       0.34853361994517329        0.00000000    
   7.8235602627953801E-002  0.34748441950647724        0.00000000    
   0.0000000000000000       0.34749203183990190        0.00000000    
   0.0000000000000000       0.42201420622988800        0.00000000    
  -7.1343603174684869E-002  0.42254272935213599        0.00000000    
 -0.14261153934325504       0.42281765613337668        0.00000000    
 -0.21332386402742937       0.42410978132065902        0.00000000    
 -0.28374105572092834       0.42490947000695067        0.00000000    
 -0.35287338242335270       0.42658078408208677        0.00000000    
 -0.42126425745624263       0.42719215468073291        0.00000000    
 -0.48724206809601317       0.42832856015364690        0.00000000    
 -0.55157618616723669       0.42727989217745271        0.00000000    
 -0.61163131687183014       0.42597973060716615        0.00000000    
 -0.66834011655501424       0.42030944845921653        0.00000000    
 -0.71764370926968013       0.41266223959033932        0.00000000    
 -0.76066198490638537       0.39630252979293368        0.00000000    
 -0.79113069058489383       0.37413432374635852        0.00000000    
 -0.81097622355379850       0.33422302101296936        0.00000000    
 -0.80998786242589826       0.27990187434823316        0.00000000    
 -0.79450183162823917       0.18695339401392039        0.00000000    
 -0.74249283782623665        5.7684098843721193E-002   0.00000000    
 -0.68966602618888295      -0.17881194553634394        0.00000000    
 -0.47531941797022575      -0.58886178144269008        0.00000000    
 -0.16219260757328280      -0.93781142861343314        0.00000000    
  -6.2250798070624953E-002  -1.0423720573498865        0.00000000    
  -3.9207813113423834E-002  -1.0650525396696719        0.00000000    
  -2.5249834982163724E-002  -1.0734083358893882        0.00000000    
  -1.2404380068040960E-002  -1.0772209818811942        0.00000000    
  -3.8549531635936128E-008  -1.0785934074924961        0.00000000    
   1.2404302890330994E-002  -1.0772210002658169        0.00000000    
   2.5249757976330715E-002  -1.0734083722531236        0.00000000    
   3.9207737358719665E-002  -1.0650525937770308        0.00000000    
   6.2250723473483073E-002  -1.0423721275810001        0.00000000    
  0.16219253837362216      -0.93781150903896593        0.00000000    
  0.47531936916818307      -0.58886185517819523        0.00000000    
  0.68966599233706061      -0.17881199621619148        0.00000000    
  0.74249281064434247        5.7684061087920388E-002   0.00000000    
  0.79450181162306188       0.18695336354709460        0.00000000    
  0.80998784749598529       0.27990185073529517        0.00000000    
  0.81097621371881534       0.33422300192653087        0.00000000    
  0.79113068423309130       0.37413430818151217        0.00000000    
  0.76066198173375710       0.39630251701236274        0.00000000    
  0.71764370874679062       0.41266223032314026        0.00000000    
  0.66834011778735103       0.42030944138007675        0.00000000    
  0.61163131897856848       0.42597972565636144        0.00000000    
  0.55157618943845277       0.42727988885764756        0.00000000    
  0.48724207196474434       0.42832855846593820        0.00000000    
  0.42126426147270335       0.42719215442714392        0.00000000    
  0.35287338592645090       0.42658078467045246        0.00000000    
  0.28374105856235110       0.42490947129181772        0.00000000    
  0.21332386621949023       0.42410978346253181        0.00000000    
  0.14261154065175710       0.42281765853415548        0.00000000    
   7.1343603837588726E-002  0.42254273208243592        0.00000000    
   0.0000000000000000       0.42201420911967708        0.00000000    
   0.0000000000000000       0.48989538114892472        0.00000000    
  -6.3619737809085905E-002  0.48962611821325897        0.00000000    
 -0.12687055751217119       0.49025424595102507        0.00000000    
 -0.18966992632586707       0.49018610696335951        0.00000000    
 -0.25126951607025660       0.49085114781125189        0.00000000    
 -0.31178905191339285       0.49029218907355931        0.00000000    
 -0.36997396405466876       0.49005775724584533        0.00000000    
 -0.42604455633129262       0.48751257806662252        0.00000000    
 -0.47805093933007564       0.48443759322153429        0.00000000    
 -0.52616413366982462       0.47699156836988421        0.00000000    
 -0.56745053272188550       0.46729402393211661        0.00000000    
 -0.60180778330977225       0.44933971613084345        0.00000000    
 -0.62487313451298898       0.42570989041080570        0.00000000    
 -0.63599099424689887       0.38631473088666252        0.00000000    
 -0.62860726547719181       0.33450562390994287        0.00000000    
 -0.60132613633475918       0.25135097606850215        0.00000000    
 -0.54350491083061436       0.14219823881742610        0.00000000    
 -0.45339243537837531       -3.9681028193360009E-002   0.00000000    
 -0.30652178274577102      -0.28114307470896793        0.00000000    
 -0.12722291720128087      -0.88017495467111395        0.00000000    
  -5.3256228631071018E-002  -1.0335912578722870        0.00000000    
  -3.5350153065231808E-002  -1.0644400255874757        0.00000000    
  -2.5145014778678788E-002  -1.0762326750741824        0.00000000    
  -1.7287891941116983E-002  -1.0840432875448236        0.00000000    
  -8.8018568555339183E-003  -1.0879175063595468        0.00000000    
  -2.9497247296978472E-008  -1.0891030381372782        0.00000000    
   8.8017979957304496E-003  -1.0879175248002142        0.00000000    
   1.7287833386527948E-002  -1.0840433243296062        0.00000000    
   2.5144956280288032E-002  -1.0762327300678216        0.00000000    
   3.5350095293955809E-002  -1.0644400968169860        0.00000000    
   5.3256172186960368E-002  -1.0335913440240692        0.00000000    
  0.12722286471639280      -0.88017504703721505        0.00000000    
  0.30652174255688980      -0.28114313400444962        0.00000000    
  0.45339240614703580       -3.9681074960996147E-002   0.00000000    
  0.54350488939841068       0.14219820238658065        0.00000000    
  0.60132612178695410       0.25135094645991984        0.00000000    
  0.62860725616747715       0.33450560048612649        0.00000000    
  0.63599098949802091       0.38631471161517500        0.00000000    
  0.62487313267384093       0.42570987524796994        0.00000000    
  0.60180778343293717       0.44933970463385597        0.00000000    
  0.56745053431279291       0.46729401585979458        0.00000000    
  0.52616413651286142       0.47699156228572975        0.00000000    
  0.47805094275625071       0.48443758928746067        0.00000000    
  0.42604456000626323       0.48751257614687016        0.00000000    
  0.36997396782580044       0.49005775698040765        0.00000000    
  0.31178905580097588       0.49029219007068281        0.00000000    
  0.25126951930736258       0.49085114999951179        0.00000000    
  0.18966992862088719       0.49018610979328631        0.00000000    
  0.12687055916021811       0.49025424919428007        0.00000000    
   6.3619738610953921E-002  0.48962612159285801        0.00000000    
   0.0000000000000000       0.48989538485418466        0.00000000    
   0.0000000000000000       0.54899816619739250        0.00000000    
  -5.5175197226799776E-002  0.54931943081713641        0.00000000    
 -0.11000737181185703       0.54864508984419236        0.00000000    
 -0.16390307992535805       0.54849150234945632        0.00000000    
 -0.21667522293546146       0.54691864627988795        0.00000000    
 -0.26738121345165827       0.54545137839671787        0.00000000    
 -0.31587584282144460       0.54157926868053841        0.00000000    
 -0.36074613710791908       0.53693311307261249        0.00000000    
 -0.40172160991530592       0.52800007062443932        0.00000000    
 -0.43676240307091541       0.51658423621407989        0.00000000    
 -0.46520033810165001       0.49742684333276532        0.00000000    
 -0.48417967555299879       0.47254464003775737        0.00000000    
 -0.49216117784492630       0.43355296907398583        0.00000000    
 -0.48531707982116812       0.38274656700768450        0.00000000    
 -0.46030581895395589       0.30567994312319885        0.00000000    
 -0.41266962762400744       0.20526048952478693        0.00000000    
 -0.33480826544623210        5.2607280668419680E-002   0.00000000    
 -0.22737440598842301      -0.14763524234159739        0.00000000    
  -6.7511079147268505E-002 -0.47992168856537687        0.00000000    
  -6.0299608291175108E-003 -0.92217509161786781        0.00000000    
  -2.2805483765993374E-002  -1.0487822293406381        0.00000000    
  -1.8559035159434981E-002  -1.0714015672674999        0.00000000    
  -1.5207483350191335E-002  -1.0828278114951082        0.00000000    
  -1.0083175228843904E-002  -1.0904295700332198        0.00000000    
  -5.2508044817329699E-003  -1.0948496172345836        0.00000000    
  -2.0757689099748853E-008  -1.0962235257888151        0.00000000    
   5.2507628478682235E-003  -1.0948496356914552        0.00000000    
   1.0083133603529304E-002  -1.0904296071155621        0.00000000    
   1.5207442024432383E-002  -1.0828278665469415        0.00000000    
   1.8558993452193528E-002  -1.0714016387844483        0.00000000    
   2.2805442046570378E-002  -1.0487823165199650        0.00000000    
   6.0299187464195967E-003 -0.92217518655237241        0.00000000    
   6.7511040657711199E-002 -0.47992176118159863        0.00000000    
  0.22737437820227796      -0.14763529744944684        0.00000000    
  0.33480824633670125        5.2607236102037207E-002   0.00000000    
  0.41266961530384566       0.20526045437797216        0.00000000    
  0.46030581208101085       0.30567991455230636        0.00000000    
  0.48531707676846508       0.38274654450219214        0.00000000    
  0.49216117747137628       0.43355295155627044        0.00000000    
  0.48417967718167909       0.47254462693110372        0.00000000    
  0.46520034117340098       0.49742683395929504        0.00000000    
  0.43676240670546057       0.51658422961614825        0.00000000    
  0.40172161376306537       0.52800006640778840        0.00000000    
  0.36074614111822151       0.53693311102409724        0.00000000    
  0.31587584691681253       0.54157926836263537        0.00000000    
  0.26738121713811730       0.54545137973876223        0.00000000    
  0.21667522619256202       0.54691864920306077        0.00000000    
  0.16390308247575375       0.54849150609325970        0.00000000    
  0.11000737353009990       0.54864509365269498        0.00000000    
   5.5175198312421542E-002  0.54931943511028591        0.00000000    
   0.0000000000000000       0.54899817087659031        0.00000000    
   0.0000000000000000       0.60031572285899903        0.00000000    
  -4.6422550430064803E-002  0.59960072418259414        0.00000000    
  -9.2322024384338841E-002  0.59909654751019981        0.00000000    
 -0.13729930124063641       0.59691413135978855        0.00000000    
 -0.18062161409308214       0.59459157523201034        0.00000000    
 -0.22190810438977984       0.58977203073921647        0.00000000    
 -0.26013827455829014       0.58398451711474475        0.00000000    
 -0.29480027872803910       0.57406126178815209        0.00000000    
 -0.32451762278294927       0.56156583877365762        0.00000000    
 -0.34841484701056052       0.54195758184130882        0.00000000    
 -0.36473563881084614       0.51681332315364048        0.00000000    
 -0.37185097977539872       0.47925393241444331        0.00000000    
 -0.36778580366207547       0.43076110051330352        0.00000000    
 -0.34944375242712167       0.36035337777118165        0.00000000    
 -0.31559685647805885       0.26921607404569631        0.00000000    
 -0.26025408721418386       0.13874648919839344        0.00000000    