 <VTKFile type="UnstructuredGrid" version="0.1" byte_order="BigEndian">
 <UnstructuredGrid>
 <Piece NumberOfPoints="        2601 " NumberOfCells="        2500 ">
 <PointData Scalars="scalars">
 <DataArray type="Float32" NumberOfComponents="3" Name="Velocity" Format="ascii">
   0.0000000000000000        0.0000000000000000        0.00000000    
  -4.7612865383823887E-002   0.0000000000000000        0.00000000    
  -9.4540409118011356E-002   0.0000000000000000        0.00000000    
 -0.14023673282854920        0.0000000000000000        0.00000000    
 -0.18389848316287627        0.0000000000000000        0.00000000    
 -0.22512934794829983        0.0000000000000000        0.00000000    
 -0.26304366455386263        0.0000000000000000        0.00000000    
 -0.29739772234218559        0.0000000000000000        0.00000000    
 -0.32727493495748339        0.0000000000000000        0.00000000    
 -0.35258434606946626        0.0000000000000000        0.00000000    
 -0.37244418635902826        0.0000000000000000        0.00000000    
 -0.38691712898535513        0.0000000000000000        0.00000000    
 -0.39523155935245913        0.0000000000000000        0.00000000    
 -0.39760722031836893        0.0000000000000000        0.00000000    
 -0.39345907434379807        0.0000000000000000        0.00000000    
 -0.38316907109167081        0.0000000000000000        0.00000000    
 -0.36640474972328368        0.0000000000000000        0.00000000    
 -0.34371312577622903        0.0000000000000000        0.00000000    
 -0.31505758556781555        0.0000000000000000        0.00000000    
 -0.28114432392478356        0.0000000000000000        0.00000000    
 -0.24224332800305701        0.0000000000000000        0.00000000    
 -0.19919818943948869        0.0000000000000000        0.00000000    
 -0.15255976939299667        0.0000000000000000        0.00000000    
 -0.10326610069258203        0.0000000000000000        0.00000000    
  -5.2090358209417063E-002   0.0000000000000000        0.00000000    
   2.6842845737985907E-008   0.0000000000000000        0.00000000    
   5.2090412152102750E-002   0.0000000000000000        0.00000000    
  0.10326615400729673        0.0000000000000000        0.00000000    
  0.15255982275931920        0.0000000000000000        0.00000000    
  0.19919824188672969        0.0000000000000000        0.00000000    
  0.24224338012583033        0.0000000000000000        0.00000000    
  0.28114437515519092        0.0000000000000000        0.00000000    
  0.31505763583553381        0.0000000000000000        0.00000000    
  0.34371317446411298        0.0000000000000000        0.00000000    
  0.36640479683751420        0.0000000000000000        0.00000000    
  0.38316911604827653        0.0000000000000000        0.00000000    
  0.39345911763535185        0.0000000000000000        0.00000000    
  0.39760726111864303        0.0000000000000000        0.00000000    
  0.39523159779884642        0.0000000000000000        0.00000000    
  0.38691716442206098        0.0000000000000000        0.00000000    
  0.37244421890987406        0.0000000000000000        0.00000000    
  0.35258437568959244        0.0000000000000000        0.00000000    
  0.32727496157779751        0.0000000000000000        0.00000000    
  0.29739774572652933        0.0000000000000000        0.00000000    
  0.26304368486964258        0.0000000000000000        0.00000000    
  0.22512936478384293        0.0000000000000000        0.00000000    
  0.18389849673763936        0.0000000000000000        0.00000000    
  0.14023674306175124        0.0000000000000000        0.00000000    
   9.4540415963000793E-002   0.0000000000000000        0.00000000    
   4.7612868783820747E-002   0.0000000000000000        0.00000000    
   0.0000000000000000        0.0000000000000000        0.00000000    
   0.0000000000000000        4.7816584368511245E-002   0.00000000    
  -4.7709775486200347E-002   4.7507516636807967E-002   0.00000000    
  -9.4802602318286910E-002   4.6514313974817464E-002   0.00000000    
 -0.14052954057919134        4.4910407884150003E-002   0.00000000    
 -0.18442052630031372        4.2643787793308963E-002   0.00000000    
 -0.22562263018627304        3.9790640191190753E-002   0.00000000    
 -0.26381819784727800        3.6320702960387384E-002   0.00000000    
 -0.29809380887358838        3.2310424293054599E-002   0.00000000    
 -0.32828472455539121        2.7759161873849886E-002   0.00000000    
 -0.35347623395308303        2.2743215943232364E-002   0.00000000    
 -0.37365615288921805        1.7297999910244236E-002   0.00000000    
 -0.38798050051639532        1.1500746321164278E-002   0.00000000    
 -0.39659139457823023        5.4260333337212505E-003   0.00000000    
 -0.39879376888570495       -8.4654353562382877E-004   0.00000000    
 -0.39488860564153039       -7.2053119376732661E-003   0.00000000    
 -0.38440376522171160       -1.3568078698894851E-002   0.00000000    
 -0.36780410760510646       -1.9794448007766197E-002   0.00000000    
 -0.34489769293965095       -2.5802138998507567E-002   0.00000000    
 -0.31631328087662541       -3.1436362350706196E-002   0.00000000    
 -0.28216779969369526       -3.6620930139372253E-002   0.00000000    
 -0.24324164926426783       -4.1204766438746869E-002   0.00000000    
 -0.19995318118740291       -4.5127390884817389E-002   0.00000000    
 -0.15320306611808188       -4.8259695314697440E-002   0.00000000    
 -0.10366725238966364       -5.0568338487512188E-002   0.00000000    
  -5.2312576291524908E-002  -5.1960631675396753E-002   0.00000000    
   2.6870868101148585E-008  -5.2440908220195669E-002   0.00000000    
   5.2312629593934741E-002  -5.1960631493064575E-002   0.00000000    
  0.10366730580648226       -5.0568338156281617E-002   0.00000000    
  0.15320311873476605       -4.8259694897401083E-002   0.00000000    
  0.19995323370266024       -4.5127390281605298E-002   0.00000000    
  0.24324170085294744       -4.1204765790912597E-002   0.00000000    
  0.28216785067656347       -3.6620929289028083E-002   0.00000000    
  0.31631333065389949       -3.1436361032766265E-002   0.00000000    
  0.34489774149474917       -2.5802137514435788E-002   0.00000000    
  0.36780415439813519       -1.9794446156113761E-002   0.00000000    
  0.38440381036722487       -1.3568076745405642E-002   0.00000000    
  0.39488864836759124       -7.2053098066560987E-003   0.00000000    
  0.39879380967999223       -8.4654124358600989E-004   0.00000000    
  0.39659143280711318        5.4260359609767028E-003   0.00000000    
  0.38798053615584882        1.1500749293021546E-002   0.00000000    
  0.37365618533334266        1.7298003019577988E-002   0.00000000    
  0.35347626335346355        2.2743218808364989E-002   0.00000000    
  0.32828475094663317        2.7759165017670138E-002   0.00000000    
  0.29809383219780300        3.2310427452234114E-002   0.00000000    
  0.26381821779928727        3.6320706241979500E-002   0.00000000    
  0.22562264702323545        3.9790643504884607E-002   0.00000000    
  0.18442053982431433        4.2643791053359241E-002   0.00000000    
  0.14052955078692039        4.4910411281935202E-002   0.00000000    
   9.4802609074421632E-002   4.6514317416841623E-002   0.00000000    
   4.7709778871405532E-002   4.7507520010708355E-002   0.00000000    
   0.0000000000000000        4.7816587779815373E-002   0.00000000    
   0.0000000000000000        9.5894562454695367E-002   0.00000000    
  -4.8066925816454588E-002   9.5207638194699726E-002   0.00000000    
  -9.5447690355909318E-002   9.3289182060332196E-002   0.00000000    
 -0.14160135943295704        9.0017545206504429E-002   0.00000000    
 -0.18571655179364266        8.5544226416389743E-002   0.00000000    
 -0.22740581458697587        7.9782965717634199E-002   0.00000000    
 -0.26576763739023784        7.2887165032783405E-002   0.00000000    
 -0.30056884633494918        6.4822178762316870E-002   0.00000000    
 -0.33086961355413647        5.5740486424178920E-002   0.00000000    
 -0.35658897100848957        4.5674153660062916E-002   0.00000000    
 -0.37681632910505924        3.4775734092316921E-002   0.00000000    
 -0.39162201677412778        2.3154441498781497E-002   0.00000000    
 -0.40020340128108928        1.0966010169345288E-002   0.00000000    
 -0.40278473888691563       -1.6014158674691691E-003   0.00000000    
 -0.39875245883503846       -1.4386490966115490E-002   0.00000000    
 -0.38849046557531774       -2.7132342266015037E-002   0.00000000    
 -0.37164533271742223       -3.9673584480425413E-002   0.00000000    
 -0.34876547149874393       -5.1707888769496044E-002   0.00000000    
 -0.31980492395724575       -6.3074183141822240E-002   0.00000000    
 -0.28547361609816224       -7.3458510031221169E-002   0.00000000    
 -0.24604540370135097       -8.2720161514529655E-002   0.00000000    
 -0.20237274189235782       -9.0571738361801934E-002   0.00000000    
 -0.15502199664211239       -9.6914821184990382E-002   0.00000000    
 -0.10494675188139092      -0.10152288446499710        0.00000000    
  -5.2943049206769580E-002 -0.10436307801840877        0.00000000    
   2.6229355715308379E-008 -0.10529275413641778        0.00000000    
   5.2943101918392833E-002 -0.10436307764966182        0.00000000    
  0.10494680395530145      -0.10152288379687706        0.00000000    
  0.15502204877888690       -9.6914820367312693E-002   0.00000000    
  0.20237279317195134       -9.0571737200363420E-002   0.00000000    
  0.24604545454902851       -8.2720160066426879E-002   0.00000000    
  0.28547366574120908       -7.3458508170702833E-002   0.00000000    
  0.31980497267379016       -6.3074180701958776E-002   0.00000000    
  0.34876551896795022       -5.1707885937832446E-002   0.00000000    
  0.37164537906044071       -3.9673581088105932E-002   0.00000000    
  0.38849050994721546       -2.7132338234555319E-002   0.00000000    
  0.39875250142711527       -1.4386486713793598E-002   0.00000000    
  0.40278477893353193       -1.6014112195002097E-003   0.00000000    
  0.40020343900060185        1.0966015333179726E-002   0.00000000    
  0.39162205167195591        2.3154447345175494E-002   0.00000000    
  0.37681636131180879        3.4775740213523539E-002   0.00000000    
  0.35658900012122124        4.5674159651087343E-002   0.00000000    
  0.33086963963268157        5.5740492485434619E-002   0.00000000    
  0.30056886935435767        6.4822185130226861E-002   0.00000000    
  0.26576765724221807        7.2887171645281260E-002   0.00000000    
  0.22740583109671886        7.9782972157708604E-002   0.00000000    
  0.18571656512774801        8.5544233038661308E-002   0.00000000    
  0.14160136940283849        9.0017551922566816E-002   0.00000000    
   9.5447697067945050E-002   9.3289188893521530E-002   0.00000000    
   4.8066929146281114E-002   9.5207644930576041E-002   0.00000000    
   0.0000000000000000        9.5894569219057715E-002   0.00000000    
   0.0000000000000000       0.14435058365870737        0.00000000    
  -4.8605969457331678E-002  0.14342584891430935        0.00000000    
  -9.6599894290616370E-002  0.14044699724866402        0.00000000    
 -0.14322444500078427       0.13563928622019331        0.00000000    
 -0.18802440188415365       0.12883897072386086        0.00000000    
 -0.23012304327093822       0.12027746142934266        0.00000000    
 -0.26922329431374958       0.10985607846394990        0.00000000    
 -0.30437219627413292        9.7804711183547596E-002   0.00000000    
 -0.33542672793935374        8.4114587118287371E-002   0.00000000    
 -0.36141900272995925        6.9013018991798250E-002   0.00000000    
 -0.38235543714570003        5.2601994204835745E-002   0.00000000    
 -0.39733042264161789        3.5110186949847091E-002   0.00000000    
 -0.40649868064756228        1.6761238699291574E-002   0.00000000    
 -0.40910337157686910       -2.2092849857179102E-003   0.00000000    
 -0.40545165984612863       -2.1461283708074565E-002   0.00000000    
 -0.39501979776204282       -4.0750075561461166E-002   0.00000000    
 -0.37827500608302561       -5.9644447332172570E-002   0.00000000    
 -0.35499373410541990       -7.7896831323163898E-002   0.00000000    
 -0.32580846966610283       -9.5029725597301343E-002   0.00000000    
 -0.29083069151208640      -0.11081072715215318        0.00000000    
 -0.25085208194183051      -0.12477344059139914        0.00000000    
 -0.20631174317274215      -0.13673013451802779        0.00000000    
 -0.15813407318409362      -0.14628351539389298        0.00000000    
 -0.10703558401967619      -0.15332659958055656        0.00000000    
  -5.4020648858582390E-002 -0.15757667638157646        0.00000000    
   2.5560348038678910E-008 -0.15904158136561594        0.00000000    
   5.4020699532171361E-002 -0.15757667581863435        0.00000000    
  0.10703563489610270      -0.15332659867175574        0.00000000    
  0.15813412330477028      -0.14628351412401000        0.00000000    
  0.20631179311685421      -0.13673013277504861        0.00000000    
  0.25085213088692898      -0.12477343829390665        0.00000000    
  0.29083073985911018      -0.11081072433831812        0.00000000    
  0.32580851681079742       -9.5029721981922277E-002   0.00000000    
  0.35499378015548760       -7.7896827325049253E-002   0.00000000    
  0.37827505052785343       -5.9644442374875054E-002   0.00000000    
  0.39501984095000714       -4.0750069866993574E-002   0.00000000    
  0.40545170082880488       -2.1461277133649984E-002   0.00000000    
  0.40910341040941545       -2.2092779642594465E-003   0.00000000    
  0.40649871677744714        1.6761246519403552E-002   0.00000000    
  0.39733045649954929        3.5110195233603689E-002   0.00000000    
  0.38235546844944285        5.2602003133949013E-002   0.00000000    
  0.36141903135663478        6.9013027946003835E-002   0.00000000    
  0.33542675351008999        8.4114596306489847E-002   0.00000000    
  0.30437221881081139        9.7804720517707583E-002   0.00000000    
  0.26922331381880726       0.10985608830924933        0.00000000    
  0.23012305958039889       0.12027747117445194        0.00000000    
  0.18802441489284841       0.12883898051750348        0.00000000    
  0.14322445486643856       0.13563929627215196        0.00000000    
   9.6599900827992649E-002  0.14044700733208310        0.00000000    
   4.8605972787170895E-002  0.14342585898970459        0.00000000    
   0.0000000000000000       0.14435059374321896        0.00000000    
   0.0000000000000000       0.19357303702524611        0.00000000    
  -4.9387476748939771E-002  0.19219811677281193        0.00000000    
  -9.8087418116181574E-002  0.18836987055797352        0.00000000    
 -0.14557548251192173       0.18183030272749204        0.00000000    
 -0.19101673641762457       0.17289043956207684        0.00000000    
 -0.23405252907918400       0.16136170069704223        0.00000000    
 -0.27373356323529369       0.14755439819677699        0.00000000    
 -0.30986088789589722       0.13138389116047339        0.00000000    
 -0.34142368447153532       0.11315400811665234        0.00000000    
 -0.36837360546313502        9.2917065624845072E-002   0.00000000    
 -0.38971113751209324        7.0973185440796518E-002   0.00000000    
 -0.40553170678322642        4.7535820880948307E-002   0.00000000    
 -0.41493611378033790        2.2909539650686095E-002   0.00000000    
 -0.41816313616920214       -2.5246038004498334E-003   0.00000000    
 -0.41450973080424497       -2.8449813742431950E-002   0.00000000    
 -0.40436509297936135       -5.4336778239380663E-002   0.00000000    
 -0.38730983884542997       -7.9856523858690021E-002   0.00000000    
 -0.36389452603356659      -0.10438007394839437        0.00000000    
 -0.33404408535028579      -0.12758092301684465        0.00000000    
 -0.29847675896393644      -0.14880337002355801        0.00000000    
 -0.25747939292310706      -0.16775550956317517        0.00000000    
 -0.21192832482543286      -0.18383820927751005        0.00000000    
 -0.16243966339032023      -0.19684050927702634        0.00000000    
 -0.11001216742280417      -0.20629432844425169        0.00000000    
  -5.5514094287818352E-002 -0.21212069361695191        0.00000000    
   2.4125011016552648E-008 -0.21403109489979824        0.00000000    
   5.5514142916376227E-002 -0.21212069298543804        0.00000000    
  0.11001221550151744      -0.20629432725701552        0.00000000    
  0.16243971154151007      -0.19684050760230468        0.00000000    
  0.21192837215744315      -0.18383820694362579        0.00000000    
  0.25747944001620648      -0.16775550661866187        0.00000000    
  0.29847680489673051      -0.14880336609836331        0.00000000    
  0.33404413048339915      -0.12758091851081396        0.00000000    
  0.36389456994033365      -0.10438006851995668        0.00000000    
  0.38730988166167124       -7.9856517635948157E-002   0.00000000    
  0.40436513384629652       -5.4336770604186332E-002   0.00000000    
  0.41450976992824523       -2.8449805160509361E-002   0.00000000    
  0.41816317307972312       -2.5245944228781936E-003   0.00000000    
  0.41493614884911340        2.2909549659093857E-002   0.00000000    
  0.40553173940298343        4.7535831697383256E-002   0.00000000    
  0.38971116766836544        7.0973196854906828E-002   0.00000000    
  0.36837363294500047        9.2917077445529933E-002   0.00000000    
  0.34142370926590687       0.11315402018181078        0.00000000    
  0.30986090975324637       0.13138390358875990        0.00000000    
  0.27373358216550703       0.14755441090670915        0.00000000    
  0.23405254505506326       0.16136171372745195        0.00000000    
  0.19101674920182163       0.17289045256286961        0.00000000    
  0.14557549202739076       0.18183031598407187        0.00000000    
   9.8087424584944488E-002  0.18836988381175790        0.00000000    
   4.9387479967444206E-002  0.19219813013563977        0.00000000    
   0.0000000000000000       0.19357305037067107        0.00000000    
   0.0000000000000000       0.24350269382166881        0.00000000    
  -5.0313964405376943E-002  0.24197111464849785        0.00000000    
 -0.10002850721652506       0.23701257023292771        0.00000000    
 -0.14837120756299818       0.22901958108146117        0.00000000    
 -0.19492044499867339       0.21769286540772895        0.00000000    
 -0.23875227619879610       0.20342811139826489        0.00000000    
 -0.27961569677837433       0.18603365422937873        0.00000000    
 -0.31647726584818819       0.16589474059315321        0.00000000    
 -0.34924288173518953       0.14297278197580804        0.00000000    
 -0.37683461334687274       0.11764115484364751        0.00000000    
 -0.39930120286529219        9.0054427194126430E-002   0.00000000    
 -0.41560764959055213        6.0582804087088063E-002   0.00000000    
 -0.42593734952735235        2.9597871173696871E-002   0.00000000    
 -0.42940211579772453       -2.5199393847033479E-003   0.00000000    
 -0.42632209126306819       -3.5186701969581222E-002   0.00000000    
 -0.41606282529463101       -6.8002588281604465E-002   0.00000000    
 -0.39909358320583593      -0.10021400565276251        0.00000000    
 -0.37512306887557512      -0.13140721548361764        0.00000000    
 -0.34478595841612708      -0.16074012982128297        0.00000000    
 -0.30818322248280422      -0.18781302326788096        0.00000000    
 -0.26612298574243570      -0.21180225764638053        0.00000000    
 -0.21909104460666509      -0.23237326940871886        0.00000000    
 -0.16805450988516230      -0.24882944485711539        0.00000000    
 -0.11381862806033297      -0.26096757049661967        0.00000000    
  -5.7461494048241607E-002 -0.26830145884731277        0.00000000    
   2.2699053719200565E-008 -0.27082476506477976        0.00000000    
   5.7461539016093972E-002 -0.26830145816408013        0.00000000    
  0.11381867332395100      -0.26096756910702229        0.00000000    
  0.16805455455599341      -0.24882944286444469        0.00000000    
  0.21909108923952644      -0.23237326653563392        0.00000000    
  0.26612302940551646      -0.21180225403237588        0.00000000    
  0.30818326591135886      -0.18781301861734487        0.00000000    
  0.34478600088820405      -0.16074012428443432        0.00000000    
  0.37512311040289231      -0.13140720891489005        0.00000000    
  0.39909362314899227      -0.10021399789562285        0.00000000    
  0.41606286395901193       -6.8002578952724435E-002   0.00000000    
  0.42632212820451676       -3.5186691615475447E-002   0.00000000    
  0.42940215115411418       -2.5199279807746385E-003   0.00000000    
  0.42593738259837688        2.9597883282859967E-002   0.00000000    
  0.41560768067562920        6.0582817237736335E-002   0.00000000    
  0.39930123159760200        9.0054441090277354E-002   0.00000000    
  0.37683463966276692       0.11764116927311657        0.00000000    
  0.34924290533682301       0.14297279683393901        0.00000000    
  0.31647728679829273       0.16589475581702096        0.00000000    
  0.27961571496973642       0.18603366982961020        0.00000000    
  0.23875229152823926       0.20342812735463048        0.00000000    
  0.19492045741976274       0.21769288158260411        0.00000000    
  0.14837121701580117       0.22901959740097591        0.00000000    
  0.10002851350343302       0.23701258663638072        0.00000000    
   5.0313967625925139E-002  0.24197113117827782        0.00000000    
   0.0000000000000000       0.24350271043919688        0.00000000    
   0.0000000000000000       0.29464872696534494        0.00000000    
  -5.1445720196018334E-002  0.29258591816551616        0.00000000    
 -0.10220531416446606       0.28687305552131792        0.00000000    
 -0.15178760637777911       0.27708524005308866        0.00000000    
 -0.19932019301336909       0.26371018210466624        0.00000000    
 -0.24449978840790931       0.24642337226046018        0.00000000    
 -0.28629677745213689       0.22569995377641269        0.00000000    
 -0.32457817128870431       0.20137255383423835        0.00000000    
 -0.35821077321700023       0.17389433616801661        0.00000000    
 -0.38721001838473462       0.14331172592792960        0.00000000    
 -0.41041992966754071       0.11006150505303455        0.00000000    
 -0.42798569782856044        7.4449087987187579E-002   0.00000000    
 -0.43883500298187000        3.6911738790299894E-002   0.00000000    
 -0.44323490492744294       -1.9679936956355144E-003   0.00000000    
 -0.44031946174318920       -4.1732970812117062E-002   0.00000000    
 -0.43048521063982698       -8.1548693262934693E-002   0.00000000    
 -0.41319176987584344      -0.12092944084898247        0.00000000    
 -0.38898627714123774      -0.15886664588889052        0.00000000    
 -0.35774134145636066      -0.19486160467058572        0.00000000    
 -0.32017865222055869      -0.22785583372594623        0.00000000    
 -0.27661212169038041      -0.25738507511069603        0.00000000    
 -0.22794763791447775      -0.28248573828807788        0.00000000    
 -0.17489642531661614      -0.30280358511821293        0.00000000    
 -0.11852637446897527      -0.31759822521533054        0.00000000    
  -5.9839380626859895E-002 -0.32671379450031812        0.00000000    
   2.0353365420658499E-008 -0.32971220982186916        0.00000000    
   5.9839421796735168E-002 -0.32671379384997418        0.00000000    
  0.11852641522981945      -0.31759822367957918        0.00000000    
  0.17489646628604244      -0.30280358288749026        0.00000000    
  0.22794767837849494      -0.28248573510966651        0.00000000    
  0.27661216226722013      -0.25738507094505825        0.00000000    
  0.32017869192056159      -0.22785582851568001        0.00000000    
  0.35774138072020389      -0.19486159830082808        0.00000000    
  0.38898631520998539      -0.15886663801321582        0.00000000    
  0.41319180692719154      -0.12092943179722759        0.00000000    
  0.43048524641613278       -8.1548682674850589E-002   0.00000000    
  0.44031949642915202       -4.1732958903937842E-002   0.00000000    
  0.44323493780447254       -1.9679804517866899E-003   0.00000000    
  0.43883503440200661        3.6911752801803269E-002   0.00000000    
  0.42798572718678196        7.4449103283360241E-002   0.00000000    
  0.41041995684473215       0.11006152133746087        0.00000000    
  0.38721004315629953       0.14331174279116746        0.00000000    
  0.35821079574096926       0.17389435355423802        0.00000000    
  0.32457819125707454       0.20137257173714557        0.00000000    
  0.28629679480478831       0.22569997207206868        0.00000000    
  0.24449980303289509       0.24642339111098796        0.00000000    
  0.19932020487251378       0.26371020105957643        0.00000000    
  0.15178761537097196       0.27708525942680934        0.00000000    
  0.10220532019165988       0.28687307500246151        0.00000000    
   5.1445723139618642E-002  0.29258593776756125        0.00000000    
   0.0000000000000000       0.29464874667475877        0.00000000    
   0.0000000000000000       0.34672904924337999        0.00000000    
  -5.2657478878330659E-002  0.34460988572772477        0.00000000    
 -0.10474117489274633       0.33769346852323262        0.00000000    
 -0.15546012046154101       0.32656715536613612        0.00000000    
 -0.20445257561819369       0.31075439857303422        0.00000000    
 -0.25072484163006131       0.29083210708294083        0.00000000    
 -0.29410737909084916       0.26647183447127293        0.00000000    
 -0.33344288124007643       0.23821865796236893        0.00000000    
 -0.36872508295822920       0.20596412337362940        0.00000000    
 -0.39870197629795445       0.17021916465502693        0.00000000    
 -0.42350008111612375       0.13116316849396051        0.00000000    
 -0.44187452654101644        8.9288723837030598E-002   0.00000000    
 -0.45406221257890689        4.5110178355526789E-002   0.00000000    
 -0.45895700291697322       -8.7065721830526194E-004   0.00000000    
 -0.45690149584960466       -4.7800175289486900E-002   0.00000000    
 -0.44707446297231285       -9.5141691066836537E-002   0.00000000    
 -0.42994190087402523      -0.14176136564184236        0.00000000    
 -0.40509823915003706      -0.18708279588986890        0.00000000    
 -0.37316724051784816      -0.22982031058818658        0.00000000    
 -0.33423569131451314      -0.26939028843697871        0.00000000    
 -0.28911888094128391      -0.30453288451126814        0.00000000    
 -0.23838825516029838      -0.33473196215217560        0.00000000    
 -0.18306040394493242      -0.35893534948613715        0.00000000    
 -0.12409582729356022      -0.37680001310192601        0.00000000    
  -6.2677565144870662E-002 -0.38761618772475342        0.00000000    
   1.8072630462132759E-008 -0.39132572603436211        0.00000000    
   6.2677600919353926E-002 -0.38761618716677682        0.00000000    
  0.12409586360219302      -0.37680001159892423        0.00000000    
  0.18306043988601567      -0.35893534706369756        0.00000000    
  0.23838829152517191      -0.33473195908386139        0.00000000    
  0.28911891690797520      -0.30453287995017320        0.00000000    
  0.33423572723856743      -0.26939028270269433        0.00000000    
  0.37316727554372864      -0.22982030340811330        0.00000000    
  0.40509827374948792      -0.18708278720298235        0.00000000    
  0.42994193452480095      -0.14176135543522400        0.00000000    
  0.44707449590287990       -9.5141679638362356E-002   0.00000000    
  0.45690152756187935       -4.7800161913061238E-002   0.00000000    
  0.45895703365542334       -8.7064265994272571E-004   0.00000000    
  0.45406224146504826        4.5110194361719980E-002   0.00000000    
  0.44187455371217160        8.9288740915417261E-002   0.00000000    
  0.42350010646238223       0.13116318700210131        0.00000000    
  0.39870199962871711       0.17021918371567532        0.00000000    
  0.36872510397983649       0.20596414311919375        0.00000000    
  0.33344290008449373       0.23821867823872411        0.00000000    
  0.29410739546093656       0.26647185548353186        0.00000000    
  0.25072485545112699       0.29083212849355566        0.00000000    
  0.20445258670224156       0.31075442047071877        0.00000000    
  0.15546012875734277       0.32656717745128394        0.00000000    
  0.10474118050578793       0.33769349094171086        0.00000000    
   5.2657481780259544E-002  0.34460990818714443        0.00000000    
   0.0000000000000000       0.34672907194095126        0.00000000    
   0.0000000000000000       0.40037890599524623        0.00000000    
  -5.4015182128110226E-002  0.39763371947794851        0.00000000    
 -0.10735348904048238       0.39009266718261415        0.00000000    
 -0.15958105172996837       0.37711549403489497        0.00000000    
 -0.20977677472611087       0.35939526708255837        0.00000000    
 -0.25772996296787615       0.33641772104918005        0.00000000    
 -0.30229770186326732       0.30883752499076572        0.00000000    
 -0.34345865767923978       0.27635045238903966        0.00000000    
 -0.37990049402541926       0.23955739382710253        0.00000000    
 -0.41174967643943855       0.19845299534470054        0.00000000    
 -0.43761387497957288       0.15359266628781959        0.00000000    
 -0.45772777858874941       0.10534859858622879        0.00000000    
 -0.47074952956542521        5.4260763746534456E-002   0.00000000    
 -0.47699766842346025        1.1227080108260660E-003   0.00000000    
 -0.47534587183480637       -5.3499823256643930E-002   0.00000000    
 -0.46619982619344080      -0.10841410237370205        0.00000000    