 <VTKFile type="UnstructuredGrid" version="0.1" byte_order="BigEndian">
 <UnstructuredGrid>
 <Piece NumberOfPoints="        2601 " NumberOfCells="        2500 ">
 <PointData Scalars="scalars">
 <DataArray type="Float32" NumberOfComponents="3" Name="Velocity" Format="ascii">
   0.0000000000000000        0.0000000000000000        0.00000000    
 -0.15065696321738042        0.0000000000000000        0.00000000    
 -0.30131984444648957        0.0000000000000000        0.00000000    
 -0.45172850134762393        0.0000000000000000        0.00000000    
 -0.60204114811384746        0.0000000000000000        0.00000000    
 -0.75160371482438815        0.0000000000000000        0.00000000    
 -0.90059034348216382        0.0000000000000000        0.00000000    
  -1.0477751833798212        0.0000000000000000        0.00000000    
  -1.1931436820120427        0.0000000000000000        0.00000000    
  -1.3346298701767989        0.0000000000000000        0.00000000    
  -1.4716968757026236        0.0000000000000000        0.00000000    
  -1.6010396241310514        0.0000000000000000        0.00000000    
  -1.7210683271015774        0.0000000000000000        0.00000000    
  -1.8267106853490758        0.0000000000000000        0.00000000    
  -1.9145758474043599        0.0000000000000000        0.00000000    
  -1.9773533188211454        0.0000000000000000        0.00000000    
  -2.0090089272440781        0.0000000000000000        0.00000000    
  -2.0003807829222922        0.0000000000000000        0.00000000    
  -1.9425271823177088        0.0000000000000000        0.00000000    
  -1.8266291108136929        0.0000000000000000        0.00000000    
  -1.6457094742933265        0.0000000000000000        0.00000000    
  -1.3898208557983838        0.0000000000000000        0.00000000    
  -1.0740787312613598        0.0000000000000000        0.00000000    
 -0.71637653619695441        0.0000000000000000        0.00000000    
 -0.35231432522197109        0.0000000000000000        0.00000000    
   4.5096354188857582E-003   0.0000000000000000        0.00000000    
  0.35478532739261959        0.0000000000000000        0.00000000    
  0.71090764479963364        0.0000000000000000        0.00000000    
   1.0638240735134095        0.0000000000000000        0.00000000    
   1.3796447964443550        0.0000000000000000        0.00000000    
   1.6423088752398713        0.0000000000000000        0.00000000    
   1.8273367698473282        0.0000000000000000        0.00000000    
   1.9460481713722617        0.0000000000000000        0.00000000    
   2.0046106714876926        0.0000000000000000        0.00000000    
   2.0132596734978332        0.0000000000000000        0.00000000    
   1.9813270955321038        0.0000000000000000        0.00000000    
   1.9179931573339235        0.0000000000000000        0.00000000    
   1.8296354922514424        0.0000000000000000        0.00000000    
   1.7234358350581371        0.0000000000000000        0.00000000    
   1.6029877639950094        0.0000000000000000        0.00000000    
   1.4732261298578324        0.0000000000000000        0.00000000    
   1.3358683595771821        0.0000000000000000        0.00000000    
   1.1940958961580581        0.0000000000000000        0.00000000    
   1.0485380696751569        0.0000000000000000        0.00000000    
  0.90116281391529474        0.0000000000000000        0.00000000    
  0.75205240414897412        0.0000000000000000        0.00000000    
  0.60236191277700701        0.0000000000000000        0.00000000    
  0.45196253414344534        0.0000000000000000        0.00000000    
  0.30146328950352780        0.0000000000000000        0.00000000    
  0.15072943927613069        0.0000000000000000        0.00000000    
   0.0000000000000000        0.0000000000000000        0.00000000    
   0.0000000000000000       0.15018367069250804        0.00000000    
 -0.14965693071258154       0.15013022323640457        0.00000000    
 -0.29919909574736137       0.15007482302643380        0.00000000    
 -0.44872156241702371       0.14985630054331645        0.00000000    
 -0.59778709634609017       0.14952188015092252        0.00000000    
 -0.74658508911731503       0.14883867932980099        0.00000000    
 -0.89421258444779250       0.14777544465740208        0.00000000    
  -1.0407969449075154       0.14599375569894249        0.00000000    
  -1.1847597293831507       0.14333752740786712        0.00000000    
  -1.3259190396748242       0.13930797104753656        0.00000000    
  -1.4617043723107208       0.13354436711314238        0.00000000    
  -1.5912220816415787       0.12531609064513008        0.00000000    
  -1.7104565661060549       0.11394709678883788        0.00000000    
  -1.8171879066149872        9.8426601966597138E-002   0.00000000    
  -1.9054186557565156        7.7669309229190200E-002   0.00000000    
  -1.9708172189974136        5.0506725427519508E-002   0.00000000    
  -2.0051331504799901        1.5464814476975343E-002   0.00000000    
  -2.0011991431692890       -2.8026966110414473E-002   0.00000000    
  -1.9497616802901305       -8.1264097374342384E-002   0.00000000    
  -1.8412094092324816      -0.14318624518826861        0.00000000    
  -1.6684691404030485      -0.21047366016257854        0.00000000    
  -1.4287525932444969      -0.28513150549189492        0.00000000    
  -1.1108691281448064      -0.34849408414598160        0.00000000    
 -0.74476309733996771      -0.37531414172438005        0.00000000    
 -0.36502887123696903      -0.36848229535497229        0.00000000    
   3.3945549629167157E-003 -0.35676509148704955        0.00000000    
  0.36907994252615428      -0.35919598805137315        0.00000000    
  0.73682947237432195      -0.36467585920504031        0.00000000    
   1.0971960097475657      -0.34860710688325047        0.00000000    
   1.4216317610921960      -0.29164936739337860        0.00000000    
   1.6664742481243970      -0.21585719843541937        0.00000000    
   1.8436185468299151      -0.14631499487850683        0.00000000    
   1.9534694735203850       -8.2247333337915507E-002   0.00000000    
   2.0054370428680510       -2.8282736126123042E-002   0.00000000    
   2.0093577347149378        1.5713042268085575E-002   0.00000000    
   1.9746013977329018        5.0975872678718843E-002   0.00000000    
   1.9087530587589490        7.8206404492395062E-002   0.00000000    
   1.8199408049373600        9.8963514410690248E-002   0.00000000    
   1.7127517324681547       0.11442521525078934        0.00000000    
   1.5930450145263055       0.12572957375318253        0.00000000    
   1.4631918195811764       0.13388525532808362        0.00000000    
   1.3270740148563926       0.13959031967633090        0.00000000    
   1.1856922984361788       0.14356386016196154        0.00000000    
   1.0415062067868117       0.14618005796927475        0.00000000    
  0.89477747311376421       0.14792393146258473        0.00000000    
  0.74700088309386992       0.14896306832259087        0.00000000    
  0.59810572605287016       0.14962258008932378        0.00000000    
  0.44893779432851688       0.14994473026754809        0.00000000    
  0.29934224631922646       0.15015006238060796        0.00000000    
  0.14972377233874756       0.15020226182621965        0.00000000    
   0.0000000000000000       0.15025094978760797        0.00000000    
   0.0000000000000000       0.29825947697314042        0.00000000    
 -0.14655688616115825       0.29826823382845236        0.00000000    
 -0.29310968624587547       0.29803177755282900        0.00000000    
 -0.43939479297486228       0.29770691941450678        0.00000000    
 -0.58556910825651542       0.29691111048940450        0.00000000    
 -0.73099745588006537       0.29567578938502626        0.00000000    
 -0.87588351828046673       0.29345189233201796        0.00000000    
  -1.0190663193346436       0.29008446953715644        0.00000000    
  -1.1606303971485759       0.28477367585819435        0.00000000    
  -1.2986600191806075       0.27706075491984200        0.00000000    
  -1.4328540560127279       0.26577095270784423        0.00000000    
  -1.5602035368599483       0.24995669522743399        0.00000000    
  -1.6795942578050314       0.22793169761510804        0.00000000    
  -1.7864592809186348       0.19803836476179046        0.00000000    
  -1.8782443640882989       0.15807337874423416        0.00000000    
  -1.9483257574586939       0.10558261252269663        0.00000000    
  -1.9920462913850177        3.8425392789782860E-002   0.00000000    
  -2.0005799621347951       -4.6387880985224214E-002   0.00000000    
  -1.9664850411945360      -0.14843556631982968        0.00000000    
  -1.8817675231244473      -0.26928456537161966        0.00000000    
  -1.7342621267686282      -0.40462100516533400        0.00000000    
  -1.5250440489600607      -0.53991878545744676        0.00000000    
  -1.2511363562695461      -0.68549796197149615        0.00000000    
 -0.86762912621344479      -0.78792352476118910        0.00000000    
 -0.41684895121223164      -0.78638731342347168        0.00000000    
   8.3604794361502414E-003 -0.73249293026852824        0.00000000    
  0.41181627473911242      -0.75260933213731296        0.00000000    
  0.84668478265457947      -0.77388055288433655        0.00000000    
   1.2416179241354608      -0.69470209205908018        0.00000000    
   1.5246200362557383      -0.55299224568368022        0.00000000    
   1.7390054572415417      -0.41374222816398565        0.00000000    
   1.8861873882127420      -0.27275619482777880        0.00000000    
   1.9706692895454112      -0.15013896141263855        0.00000000    
   2.0048443791064918       -4.6533766961231030E-002   0.00000000    
   1.9958717558271180        3.9016004534786375E-002   0.00000000    
   1.9517728917567376       0.10652811146335926        0.00000000    
   1.8811164030108243       0.15915899342668377        0.00000000    
   1.7888721872286186       0.19906739507912360        0.00000000    
   1.6815266989134721       0.22885589536573647        0.00000000    
   1.5617956770705634       0.25073663342191815        0.00000000    
   1.4341016627712544       0.26642540490278971        0.00000000    
   1.2996790864492489       0.27759055114733949        0.00000000    
   1.1614139695852579       0.28521046197414318        0.00000000    
   1.0197004995398395       0.29043301785080555        0.00000000    
  0.87635900257317667       0.29374120221973327        0.00000000    
  0.73137380740746816       0.29590758274997409        0.00000000    
  0.58583745097007556       0.29710957913929104        0.00000000    
  0.43959232452960473       0.29787078938133893        0.00000000    
  0.29323021046994291       0.29818166533471924        0.00000000    
  0.14661825120979827       0.29840109211166932        0.00000000    
   0.0000000000000000       0.29839414304964706        0.00000000    
   0.0000000000000000       0.44239223507490827        0.00000000    
 -0.14152949667143014       0.44222185855820789        0.00000000    
 -0.28292442024929326       0.44202587648458075        0.00000000    
 -0.42426057897974478       0.44133408594113788        0.00000000    
 -0.56510724480746943       0.44030492507107072        0.00000000    
 -0.70566751091344160       0.43827058853183809        0.00000000    
 -0.84510564161660173       0.43518128628767971        0.00000000    
 -0.98364907702308879       0.43008131204112882        0.00000000    
  -1.1199032137825522       0.42259504792652153        0.00000000    
  -1.2539676677185740       0.41133345881855765        0.00000000    
  -1.3836646042943430       0.39538922221591472        0.00000000    
  -1.5087229266175062       0.37274622888876235        0.00000000    
  -1.6258588586622091       0.34166881694245455        0.00000000    
  -1.7340430357662542       0.29935044565114471        0.00000000    
  -1.8284397809463711       0.24294312620354033        0.00000000    
  -1.9066983786783640       0.16905285616487933        0.00000000    
  -1.9619267106178182        7.3904015012247803E-002   0.00000000    
  -1.9902187261398701       -4.5040816936702158E-002   0.00000000    
  -1.9821083103781030      -0.19198796707152560        0.00000000    
  -1.9306742055420145      -0.36188378752688061        0.00000000    
  -1.8328411588254931      -0.55736022608360503        0.00000000    
  -1.6649023297064773      -0.76433647146747685        0.00000000    
  -1.4470861273175080      -0.95280417104229775        0.00000000    
  -1.1872866689310233       -1.1639240041336059        0.00000000    
 -0.78058853821098495       -1.2678651397739649        0.00000000    
  -2.3562876798059174E-002  -1.4332501959806940        0.00000000    
  0.75332951255204006       -1.2322002510805727        0.00000000    
   1.1870993122873803       -1.1629279415928917        0.00000000    
   1.4579664532624639      -0.97145498580780920        0.00000000    
   1.6792091867916712      -0.78048419758515875        0.00000000    
   1.8409655491944019      -0.56239205965224714        0.00000000    
   1.9351954837142928      -0.36551822883133939        0.00000000    
   1.9865626234994105      -0.19322596852803289        0.00000000    
   1.9938071840016378       -4.4866409909948113E-002   0.00000000    
   1.9652151305577179        7.4913324205658979E-002   0.00000000    
   1.9093734119911583       0.17057137442855327        0.00000000    
   1.8306425048166548       0.24450312638078114        0.00000000    
   1.7357958098911248       0.30081417283183504        0.00000000    
   1.6273126036011345       0.34293781221704467        0.00000000    
   1.5098692879412063       0.37382905407248146        0.00000000    
   1.3846187604662330       0.39627752602539706        0.00000000    
   1.2547089352808019       0.41207083153117480        0.00000000    
   1.1205174082693006       0.42318682546469727        0.00000000    
  0.98411586002589158       0.43057167264806229        0.00000000    
  0.84548696951798308       0.43557293489595122        0.00000000    
  0.70594683526110003       0.43860117949531363        0.00000000    
  0.56532631358986607       0.44057286050149019        0.00000000    
  0.42440784116716040       0.44157110688126938        0.00000000    
  0.28302392896010903       0.44222737410042290        0.00000000    
  0.14157532438144321       0.44241594718371618        0.00000000    
   0.0000000000000000       0.44257286356777181        0.00000000    
   0.0000000000000000       0.58035225552384606        0.00000000    
 -0.13455266451146089       0.58034399929108182        0.00000000    
 -0.26906031336693176       0.57980630818397338        0.00000000    
 -0.40323677076572861       0.57906627036990332        0.00000000    
 -0.53721571494436526       0.57739835064761280        0.00000000    
 -0.67039515088375612       0.57491686499955696        0.00000000    
 -0.80302581703261966       0.57060380667094779        0.00000000    
 -0.93409133168163483       0.56426774171224858        0.00000000    
  -1.0638861468576499       0.55445757018986319        0.00000000    
  -1.1908438828496486       0.54049312648210979        0.00000000    
  -1.3152005163190519       0.52028312459654447        0.00000000    
  -1.4346507303454532       0.49236086285655506        0.00000000    
  -1.5492107028528523       0.45375008752581014        0.00000000    
  -1.6555671062499318       0.40180975556775572        0.00000000    
  -1.7532390707647345       0.33255252598094859        0.00000000    
  -1.8374602749355216       0.24192325828907491        0.00000000    
  -1.9067545473157763       0.12555621720693375        0.00000000    
  -1.9542714401524071       -2.0884110773902644E-002   0.00000000    
  -1.9788705627266066      -0.19965596642263261        0.00000000    
  -1.9686232822350125      -0.41589717350467165        0.00000000    
  -1.9193235948530896      -0.65047957420490399        0.00000000    
  -1.8415734700816515      -0.91690607723789375        0.00000000    
  -1.6957573538293964       -1.1638668839136135        0.00000000    
  -1.4436020513031860       -1.4648160521765445        0.00000000    
  -1.3569692404257130       -1.4603040333285962        0.00000000    
   8.6214869105435601E-003  -3.3634276911812773        0.00000000    
   1.4395420714258140       -1.5098357297337812        0.00000000    
   1.5308018257598590       -1.4103220170103554        0.00000000    
   1.7200291911340990       -1.1841554167401502        0.00000000    
   1.8511731805414957      -0.92017048959064696        0.00000000    
   1.9214370891962849      -0.65472603870481272        0.00000000    
   1.9726318376648919      -0.41860893276853234        0.00000000    
   1.9815849612655614      -0.20045552797730001        0.00000000    
   1.9571542491240901       -2.0450698822647936E-002   0.00000000    
   1.9089342133159788       0.12730970236959868        0.00000000    
   1.8390335185116049       0.24391740963436420        0.00000000    
   1.7544200711515974       0.33450144570860990        0.00000000    
   1.6565380887347743       0.40354453084519043        0.00000000    
   1.5499742433870038       0.45525450584052241        0.00000000    
   1.4353157378683672       0.49361418162641379        0.00000000    
   1.3157238200117689       0.52133484380206796        0.00000000    
   1.1913019105792064       0.54134524837135856        0.00000000    
   1.0642387854150650       0.55516706079915690        0.00000000    
  0.93439581362411894       0.56483595734683156        0.00000000    
  0.80325216627382878       0.57108118805435748        0.00000000    
  0.67058488139707706       0.57530034546942910        0.00000000    
  0.53734842019701046       0.57773067739763317        0.00000000    
  0.40333951150767722       0.57934067109606691        0.00000000    
  0.26912121538285388       0.58006001821644115        0.00000000    
  0.13458506754452343       0.58056805548360757        0.00000000    
   0.0000000000000000       0.58058114719277409        0.00000000    
   0.0000000000000000       0.71072448122145238        0.00000000    
 -0.12587341641147015       0.71039785451532533        0.00000000    
 -0.25155452913915721       0.70994121454179193        0.00000000    
 -0.37705644543680961       0.70860973770746827        0.00000000    
 -0.50193257249764223       0.70670995454840579        0.00000000    
 -0.62636284757109284       0.70321497211055661        0.00000000    
 -0.74958446685537594       0.69815798499196946        0.00000000    
 -0.87191482167156886       0.69010943285540716        0.00000000    
 -0.99219675521789674       0.67869262776790396        0.00000000    
  -1.1108662276394778       0.66188527731664837        0.00000000    
  -1.2262738184183555       0.63865519800912240        0.00000000    
  -1.3389654310628452       0.60613061611390429        0.00000000    
  -1.4466733921821493       0.56224826789397508        0.00000000    
  -1.5500332808091668       0.50302786722277237        0.00000000    
  -1.6459720157002389       0.42494511373059213        0.00000000    
  -1.7350983505944471       0.32287820960358726        0.00000000    
  -1.8129867643278843       0.19178395200486931        0.00000000    
  -1.8793785637314881        2.6796846667667924E-002   0.00000000    
  -1.9278553937389242      -0.17426097128383480        0.00000000    
  -1.9645598759248195      -0.41483496694977734        0.00000000    
  -1.9696844742095623      -0.69571686985823378        0.00000000    
  -1.9449232767160367      -0.97418010385000220        0.00000000    
  -1.9168672155045285       -1.2804650347665179        0.00000000    
  -2.0159678213770045       -1.5012725979752972        0.00000000    
 -0.70670741510262369       -2.8197407046938441        0.00000000    
  -6.6350226734437287E-002  -4.0099389354296804        0.00000000    
  0.61177870086948938       -2.9723739976332060        0.00000000    
   1.9451454397640062       -1.3724102422780697        0.00000000    
   1.8616549121205721       -1.3278040292044280        0.00000000    
   1.9330963161016499      -0.97910727051505930        0.00000000    
   1.9689053534716618      -0.70186220380657216        0.00000000    
   1.9640894323567126      -0.41785159502090330        0.00000000    
   1.9299064269991542      -0.17598298396933532        0.00000000    
   1.8808960021629808        2.8517894146352349E-002   0.00000000    
   1.8133409764302495       0.19411617094019423        0.00000000    
   1.7351792073798806       0.32517340491770835        0.00000000    
   1.6460060913809100       0.42703201378301725        0.00000000    
   1.5500476429323737       0.50485439363525975        0.00000000    
   1.4467600373379061       0.56379609399148567        0.00000000    
   1.3390426980182175       0.60744843831283823        0.00000000    
   1.2263977897821878       0.63973741320708877        0.00000000    
   1.1109655489002639       0.66279682927984807        0.00000000    
  0.99231559896779586       0.67942855498611532        0.00000000    
  0.87200269673658071       0.69073033718102572        0.00000000    
  0.74967685803250650       0.69865629427338505        0.00000000    
  0.62642619166424240       0.70364319049438451        0.00000000    
  0.50199297058620418       0.70705751464965816        0.00000000    
  0.37709336019669704       0.70892235292182970        0.00000000    
  0.25158387893764522       0.71020611377344622        0.00000000    
  0.12588542039579140       0.71065656630571394        0.00000000    
   0.0000000000000000       0.71096312430989239        0.00000000    
   0.0000000000000000       0.83132324504851729        0.00000000    
 -0.11555714447107772       0.83122965156970829        0.00000000    
 -0.23097534101072761       0.83020872675366375        0.00000000    
 -0.34590188211973227       0.82877068290113676        0.00000000    
 -0.46038389710348410       0.82590715139825954        0.00000000    
 -0.57381621129620053       0.82188036452573443        0.00000000    
 -0.68642071099069335       0.81531871155452706        0.00000000    
 -0.79729356471394608       0.80615191483113857        0.00000000    
 -0.90684697265489622       0.79248548727843671        0.00000000    
  -1.0138286537156096       0.77374357128722993        0.00000000    
  -1.1189014851833539       0.74727732628418198        0.00000000    
  -1.2204140027768147       0.71171261807558661        0.00000000    
  -1.3194019815671454       0.66336220584099259        0.00000000    
  -1.4137561655342838       0.59962800186866760        0.00000000    
  -1.5050373874568783       0.51556493589749408        0.00000000    
  -1.5906033620538393       0.40695069692657537        0.00000000    
  -1.6726093060236047       0.26760582238431985        0.00000000    
  -1.7469468280660683        9.1704297732966594E-002   0.00000000    
  -1.8127159306445639      -0.12492248976378756        0.00000000    
  -1.8665915821350834      -0.37359331479474434        0.00000000    
  -1.9187671014063805      -0.67965840445769277        0.00000000    
  -2.0010733651179260      -0.93269350303373211        0.00000000    
  -2.0412229496665013       -1.3098581122359247        0.00000000    
 -0.90887784181558828       -2.5051240225043179        0.00000000    
 -0.31572807378764600       -3.7182994543761110        0.00000000    
   1.1102737714242361E-002  -4.0785681856432827        0.00000000    
  0.23261884220681059       -3.8033897794227660        0.00000000    
  0.83372308432850506       -2.4758654415324508        0.00000000    
   2.0554784491030498       -1.3626136669827955        0.00000000    
   1.9898708941344201      -0.95013148175409745        0.00000000    
   1.9123841600910709      -0.68916029589433525        0.00000000    
   1.8681338846035846      -0.38148730633211420        0.00000000    
   1.8139736055329658      -0.12400398823048235        0.00000000    
   1.7450432677436205        9.4479661031718995E-002   0.00000000    
   1.6707834111502882       0.26996928638016748        0.00000000    
   1.5891147271733299       0.40915074250377320        0.00000000    
   1.5038632973399264       0.51747922202849816        0.00000000    
   1.4129390797143513       0.60128985146262515        0.00000000    
   1.3187783288845518       0.66480899258748660        0.00000000    
   1.2200059877474840       0.71292522017236082        0.00000000    
   1.1185905354299355       0.74832099190019374        0.00000000    
   1.0136376790100143       0.77459834788738491        0.00000000    
  0.90669746356088388       0.79321720175918808        0.00000000    
  0.79720920363198167       0.80674285256689282        0.00000000    
  0.68635047509835723       0.81582834612419619        0.00000000    
  0.57378109050464765       0.82229118960439329        0.00000000    
  0.46035195638895848       0.82627187073233088        0.00000000    
  0.34588850980287156       0.82907105381362123        0.00000000    
  0.23096292606605434       0.83049247787645519        0.00000000    
  0.11555375539187529       0.83147783141762743        0.00000000    
   0.0000000000000000       0.83158103498455527        0.00000000    
   0.0000000000000000       0.94130193306721632        0.00000000    
 -0.10392415271263156       0.94073226073361915        0.00000000    
 -0.20754278211868071       0.93974294353433230        0.00000000    
 -0.31073735380762518       0.93735757891733851        0.00000000    
 -0.41299185860625531       0.93405677516329932        0.00000000    
 -0.51436616707011518       0.92853736341621484        0.00000000    
 -0.61410333682727702       0.92100338211453847        0.00000000    
 -0.71246058330960749       0.90969734447568018        0.00000000    
 -0.80840930677521450       0.89444218903926265        0.00000000    
 -0.90247248356508347       0.87283172737598846        0.00000000    
 -0.99332398656559817       0.84411350466246027        0.00000000    
  -1.0819037761085264       0.80496874683274111        0.00000000    
  -1.1665617367337591       0.75375201649813983        0.00000000    
  -1.2489123830405571       0.68594302148455555        0.00000000    
  -1.3269258325511797       0.59854458771351471        0.00000000    
  -1.4031436709601188       0.48575485811563890        0.00000000    
  -1.4753038889548373       0.34296782315838492        0.00000000    
  -1.5473395388807540       0.16271546892661271        0.00000000    
  -1.6146215775516171       -6.2882519709483761E-002   0.00000000    
  -1.6658792726656535      -0.33049993824482443        0.00000000    
  -1.7303392749018061      -0.60611625950157355        0.00000000    
  -1.7724727066849504      -0.88179595248764953        0.00000000    
 -0.97973010672884620       -2.1133486782104893        0.00000000    
 -0.51626931163005974       -3.2974393593886591        0.00000000    
 -0.15041370258703493       -3.8849894945865442        0.00000000    
  -1.5790675108339439E-002  -4.3733319843209282        0.00000000    
  0.14299623449683874       -3.8889289948691022        0.00000000    
  0.50354968962193836       -3.3519839232381536        0.00000000    
  0.93419966952702904       -2.1389005299843982        0.00000000    
   1.7607152881988037      -0.93475268235881315        0.00000000    
   1.7448816365678474      -0.61121870962009128        0.00000000    
   1.6651742342380886      -0.33547121478946096        0.00000000    
   1.6082589283760056       -5.8944494841735730E-002   0.00000000    
   1.5421602792227973       0.16444915458488008        0.00000000    
   1.4716400971829642       0.34477983145882002        0.00000000    
   1.4003422919800828       0.48730668660419230        0.00000000    
   1.3249317508225200       0.59998524891771399        0.00000000    
   1.2473712305776714       0.68726856244297174        0.00000000    
   1.1654543446269727       0.75490791838634541        0.00000000    
   1.0810441880662514       0.80600879207036957        0.00000000    
  0.99270989419888656       0.84498716618584535        0.00000000    
  0.90199196590216224       0.87360295831741219        0.00000000    
  0.80807059680416216       0.89507417587507432        0.00000000    
  0.71219255030094530       0.91025218488212134        0.00000000    
  0.61391862483027948       0.92145166781207088        0.00000000    
  0.51421958481746921       0.92893629252200338        0.00000000    
  0.41289552811535801       0.93437995863136181        0.00000000    
  0.31066436576735490       0.93765757484761991        0.00000000    
  0.20750153377273814       0.93999437257275609        0.00000000    
  0.10390204214436852       0.94098459902278853        0.00000000    
   0.0000000000000000       0.94153006491452773        0.00000000    
   0.0000000000000000        1.0386967201854151        0.00000000    
  -9.1129329652346311E-002   1.0383909559792790        0.00000000    
 -0.18196358329843185        1.0365371313397096        0.00000000    
 -0.27202816489760556        1.0338225443989368        0.00000000    
 -0.36119452742933417        1.0290126770109851        0.00000000    
 -0.44878537946615754        1.0225466220680446        0.00000000    
 -0.53484655009120352        1.0127924638438688        0.00000000    
 -0.61847177848200097       0.99989073761828096        0.00000000    
 -0.69992759775617497       0.98165333863542470        0.00000000    
 -0.77805297390566475       0.95780913071795615        0.00000000    
 -0.85344893932842025       0.92538356974278180        0.00000000    
 -0.92466514018376722       0.88349467214942368        0.00000000    
 -0.99285683507212408       0.82807574669411144        0.00000000    
  -1.0561838365270371       0.75729693904897177        0.00000000    
  -1.1166745883775917       0.66569487150940654        0.00000000    
  -1.1717688899032550       0.54991671425296329        0.00000000    