 <VTKFile type="UnstructuredGrid" version="0.1" byte_order="BigEndian">
 <UnstructuredGrid>
 <Piece NumberOfPoints="        2601 " NumberOfCells="        2500 ">
 <PointData Scalars="scalars">
 <DataArray type="Float32" NumberOfComponents="3" Name="Velocity" Format="ascii">
   0.0000000000000000        0.0000000000000000        0.00000000    
  -5.1353085961355009E-002   0.0000000000000000        0.00000000    
 -0.10201764703042007        0.0000000000000000        0.00000000    
 -0.15125129041645158        0.0000000000000000        0.00000000    
 -0.19843899997330808        0.0000000000000000        0.00000000    
 -0.24280827941599301        0.0000000000000000        0.00000000    
 -0.28383646943674740        0.0000000000000000        0.00000000    
 -0.32075193144907443        0.0000000000000000        0.00000000    
 -0.35314526036545352        0.0000000000000000        0.00000000    
 -0.38028587545462050        0.0000000000000000        0.00000000    
 -0.40190215479246055        0.0000000000000000        0.00000000    
 -0.41735416545850879        0.0000000000000000        0.00000000    
 -0.42653574947608347        0.0000000000000000        0.00000000    
 -0.42895402495814344        0.0000000000000000        0.00000000    
 -0.42469594198966060        0.0000000000000000        0.00000000    
 -0.41347302841860295        0.0000000000000000        0.00000000    
 -0.39558688896236999        0.0000000000000000        0.00000000    
 -0.37100281985303518        0.0000000000000000        0.00000000    
 -0.34024438558841719        0.0000000000000000        0.00000000    
 -0.30356129214056005        0.0000000000000000        0.00000000    
 -0.26168384980479709        0.0000000000000000        0.00000000    
 -0.21514819455448558        0.0000000000000000        0.00000000    
 -0.16484815086955620        0.0000000000000000        0.00000000    
 -0.11157387292062507        0.0000000000000000        0.00000000    
  -5.6311613194025965E-002   0.0000000000000000        0.00000000    
  -3.9768289718871685E-005   0.0000000000000000        0.00000000    
   5.6254545454577663E-002   0.0000000000000000        0.00000000    
  0.11149500033735103        0.0000000000000000        0.00000000    
  0.16479198259177810        0.0000000000000000        0.00000000    
  0.21507131059711490        0.0000000000000000        0.00000000    
  0.26162949030290633        0.0000000000000000        0.00000000    
  0.30348770543792020        0.0000000000000000        0.00000000    
  0.34019275177228325        0.0000000000000000        0.00000000    
  0.37093379548672800        0.0000000000000000        0.00000000    
  0.39553887922687292        0.0000000000000000        0.00000000    
  0.41340974300538114        0.0000000000000000        0.00000000    
  0.42465239458740373        0.0000000000000000        0.00000000    
  0.42889751551302940        0.0000000000000000        0.00000000    
  0.42649739339968662        0.0000000000000000        0.00000000    
  0.41730528576304743        0.0000000000000000        0.00000000    
  0.40186957253359662        0.0000000000000000        0.00000000    
  0.38024527088440685        0.0000000000000000        0.00000000    
  0.35311886975682416        0.0000000000000000        0.00000000    
  0.32072004335164495        0.0000000000000000        0.00000000    
  0.28381653480853025        0.0000000000000000        0.00000000    
  0.24278537511847462        0.0000000000000000        0.00000000    
  0.19842566290719199        0.0000000000000000        0.00000000    
  0.15123750915557815        0.0000000000000000        0.00000000    
  0.10201096895286403        0.0000000000000000        0.00000000    
   5.1348487170046565E-002   0.0000000000000000        0.00000000    
   0.0000000000000000        0.0000000000000000        0.00000000    
   0.0000000000000000        5.1609148592145937E-002   0.00000000    
  -5.1503779505083107E-002   5.1249415212836678E-002   0.00000000    
 -0.10228930053685419        5.0202365145482326E-002   0.00000000    
 -0.15170260910773037        4.8446284898561204E-002   0.00000000    
 -0.19898203164455275        4.6022545042844566E-002   0.00000000    
 -0.24355637089770510        4.2922771168099685E-002   0.00000000    
 -0.28464722051441593        3.9197965598086644E-002   0.00000000    
 -0.32178539625649816        3.4857368806360756E-002   0.00000000    
 -0.35421096678600195        2.9963226775239719E-002   0.00000000    
 -0.38157920698018410        2.4547324043447040E-002   0.00000000    
 -0.40319368728632021        1.8685130520291186E-002   0.00000000    
 -0.41886050694732585        1.2435394036758377E-002   0.00000000    
 -0.42800055953416244        5.8879361147692903E-003   0.00000000    
 -0.43059934589837584       -8.6918146097876244E-004   0.00000000    
 -0.42625356536921788       -7.7329899390693605E-003   0.00000000    
 -0.41515425795088157       -1.4587539696822619E-002   0.00000000    
 -0.39712954224668434       -2.1321624802303284E-002   0.00000000    
 -0.37259231442224622       -2.7797982170027793E-002   0.00000000    
 -0.34164459385960905       -3.3906483323720829E-002   0.00000000    
 -0.30491886130240958       -3.9500653954753988E-002   0.00000000    
 -0.26280938334203652       -4.4484578133790718E-002   0.00000000    
 -0.21613977104156384       -4.8719001678844027E-002   0.00000000    
 -0.16558212924378285       -5.2136996437075554E-002   0.00000000    
 -0.11209331777603998       -5.4624405908799606E-002   0.00000000    
  -5.6573243655431447E-002  -5.6156241062717806E-002   0.00000000    
  -2.8356066651291929E-005  -5.6658804653804969E-002   0.00000000    
   5.6494285768375833E-002  -5.6156464152547741E-002   0.00000000    
  0.11203705013336537       -5.4625068216410777E-002   0.00000000    
  0.16550449241529766       -5.2137669253154731E-002   0.00000000    
  0.21608484374413753       -4.8720322711659492E-002   0.00000000    
  0.26273438165415469       -4.4485707170343891E-002   0.00000000    
  0.30486618303893481       -3.9502621139880990E-002   0.00000000    
  0.34157351514239048       -3.3908068575966781E-002   0.00000000    
  0.37254279315283712       -2.7800563814074454E-002   0.00000000    
  0.39706361108963095       -2.1323647906226716E-002   0.00000000    
  0.41510876473027669       -1.4590678850940215E-002   0.00000000    
  0.42619389175139566       -7.7354084036250978E-003   0.00000000    
  0.43055866697518541       -8.7279564818444828E-004   0.00000000    
  0.42794808946608698        5.8851880731663440E-003   0.00000000    
  0.41882529688056019        1.2431405695464751E-002   0.00000000    
  0.40314916489060854        1.8682133748975899E-002   0.00000000    
  0.38154995984000306        2.4543067869286242E-002   0.00000000    
  0.35417492490826991        2.9960063720496623E-002   0.00000000    
  0.32176244173829688        3.4852941988466050E-002   0.00000000    
  0.28461999780311259        3.9194707135154425E-002   0.00000000    
  0.24353989779748378        4.2918249686774726E-002   0.00000000    
  0.19896381600281496        4.6019241829786596E-002   0.00000000    
  0.15169270586270914        4.8441719906664314E-002   0.00000000    
  0.10228017787819393        5.0199046363487050E-002   0.00000000    
   5.1500476422429206E-002   5.1244835129116928E-002   0.00000000    
   0.0000000000000000        5.1605826798035589E-002   0.00000000    
   0.0000000000000000       0.10348858285793065        0.00000000    
  -5.1923582622919850E-002  0.10279897962615572        0.00000000    
 -0.10315889593767123       0.10067527153848808        0.00000000    
 -0.15296175085331318        9.7191178297976355E-002   0.00000000    
 -0.20071783512198721        9.2314794485209600E-002   0.00000000    
 -0.24564928952750961        8.6137951119923659E-002   0.00000000    
 -0.28723314495576491        7.8659125991677500E-002   0.00000000    
 -0.32468766643235253        6.9990540498417339E-002   0.00000000    
 -0.35760106910250827        6.0170662570860352E-002   0.00000000    
 -0.38522744270834913        4.9336135791118660E-002   0.00000000    
 -0.40729038292784681        3.7575372348858306E-002   0.00000000    
 -0.42312993802530952        2.5053159389858293E-002   0.00000000    
 -0.43263347683661146        1.1915393815059131E-002   0.00000000    
 -0.43528531645918439       -1.6443821939758352E-003   0.00000000    
 -0.43116617212535419       -1.5421083886199952E-002   0.00000000    
 -0.41996532559009864       -2.9197970201686033E-002   0.00000000    
 -0.40198135483624103       -4.2718252030492045E-002   0.00000000    
 -0.37716222674903965       -5.5756082772051040E-002   0.00000000    
 -0.34603499018029310       -6.8021712474375315E-002   0.00000000    
 -0.30884133174054540       -7.9303188983718589E-002   0.00000000    
 -0.26632402892962814       -8.9307197636841099E-002   0.00000000    
 -0.21902353304982730       -9.7864864555009298E-002   0.00000000    
 -0.16785548086891247      -0.10471520214791272        0.00000000    
 -0.11362703411832581      -0.10976183330638262        0.00000000    
  -5.7353103874239447E-002 -0.11281119312805706        0.00000000    
  -3.8939673372778159E-005 -0.11386127957987045        0.00000000    
   5.7297906483612819E-002 -0.11281185240991901        0.00000000    
  0.11354980602024893      -0.10976271896963985        0.00000000    
  0.16780114850134156      -0.10471717814332135        0.00000000    
  0.21894825799812043       -9.7866649266376657E-002   0.00000000    
  0.26627144297053618       -8.9310477688083464E-002   0.00000000    
  0.30876930130130720       -7.9305884109387159E-002   0.00000000    
  0.34598504643847677       -6.8026256021808798E-002   0.00000000    
  0.37709469383902960       -5.5759674411320459E-002   0.00000000    
  0.40193493848653794       -4.2723971805015623E-002   0.00000000    
  0.41990345697090181       -2.9202398362607539E-002   0.00000000    
  0.43112410934660067       -1.5427838781554322E-002   0.00000000    
  0.43523013593849291       -1.6495369130270325E-003   0.00000000    
  0.43259648180876026        1.1907791961678108E-002   0.00000000    
  0.42308227747214744        2.5047430375026672E-002   0.00000000    
  0.40725901416421800        3.7567136793491392E-002   0.00000000    
  0.38518791663652219        4.9330000445110836E-002   0.00000000    
  0.35757571453042375        6.0162001927422090E-002   0.00000000    
  0.32465667830696443        6.9984157455277363E-002   0.00000000    
  0.28721403222949005        7.8650216548289562E-002   0.00000000    
  0.24562706579486893        8.6131442007568254E-002   0.00000000    
  0.20070507045183822        9.2305762381205345E-002   0.00000000    
  0.15294839460245249        9.7184621375274879E-002   0.00000000    
  0.10315251186153318       0.10066619192394193        0.00000000    
   5.1919128304447962E-002  0.10279241103666314        0.00000000    
   0.0000000000000000       0.10347949216497652        0.00000000    
   0.0000000000000000       0.15596390037235369        0.00000000    
  -5.2635503792006884E-002  0.15488432336814090        0.00000000    
 -0.10455197648785698       0.15174328857399874        0.00000000    
 -0.15509718729846433       0.14647280156076262        0.00000000    
 -0.20350299296381316       0.13919663550795308        0.00000000    
 -0.24919926370841675       0.12988540921815042        0.00000000    
 -0.29139263392028364       0.11869046714767563        0.00000000    
 -0.32961169580879773       0.10563435577332585        0.00000000    
 -0.36307124730572110        9.0901374052400272E-002   0.00000000    
 -0.39141950835590378        7.4581630866492152E-002   0.00000000    
 -0.41392433351154712        5.6899213976853803E-002   0.00000000    
 -0.43038017178063404        3.8026281664609952E-002   0.00000000    
 -0.44016407034548810        1.8231278814151586E-002   0.00000000    
 -0.44324787444115887       -2.2230544275297819E-003   0.00000000    
 -0.43918157004602693       -2.3026292001979257E-002   0.00000000    
 -0.42814558529901869       -4.3828025845041446E-002   0.00000000    
 -0.40992642789460110       -6.4289757677545287E-002   0.00000000    
 -0.38493609867785411       -8.3992468367008327E-002   0.00000000    
 -0.35324940487844897      -0.10259769178453762        0.00000000    
 -0.31551399879722197      -0.11965470942966688        0.00000000    
 -0.27211941255378874      -0.13486600198006102        0.00000000    
 -0.22392384329720438      -0.14780056162066899        0.00000000    
 -0.17162101548950062      -0.15824882170620339        0.00000000    
 -0.11621980835619285      -0.16585630460166709        0.00000000    
  -5.8665643015267790E-002 -0.17054325458529662        0.00000000    
  -2.6473537530764232E-005 -0.17208098907182531        0.00000000    
   5.8590006121047172E-002 -0.17054390602170849        0.00000000    
  0.11616727023921415      -0.16585826616312757        0.00000000    
  0.17154664967655683      -0.15825078985575186        0.00000000    
  0.22387254556389072      -0.14780447955723555        0.00000000    
  0.27204759121240513      -0.13486931430832932        0.00000000    
  0.31546480091985335      -0.11966055124721164        0.00000000    
  0.35318138796172760      -0.10260235631540786        0.00000000    
  0.38488987573006517       -8.4000143810071745E-002   0.00000000    
  0.40986341932482340       -6.4295724603114238E-002   0.00000000    
  0.42810318564013167       -4.3837363484489161E-002   0.00000000    
  0.43912465997947131       -2.3033432867127810E-002   0.00000000    
  0.44321005936252383       -2.2338004127986175E-003   0.00000000    
  0.44011416958574123        1.8223168400905331E-002   0.00000000    
  0.43034755782971590        3.8014439934119959E-002   0.00000000    
  0.41388213389099315        5.6890385004266901E-002   0.00000000    
  0.39139253424270820        7.4569020744487027E-002   0.00000000    
  0.36303720924199140        9.0892080624294047E-002   0.00000000    
  0.32959062205561801       0.10562127476146396        0.00000000    
  0.29136701548432614       0.11868092494686565        0.00000000    
  0.24918420447888315       0.12987208466492595        0.00000000    
  0.20348590062993963       0.13918699287860928        0.00000000    
  0.15508816322224658       0.14645937848615637        0.00000000    
  0.10454343294609429       0.15173362239596136        0.00000000    
   5.2632499331154201E-002  0.15487087250123399        0.00000000    
   0.0000000000000000       0.15595423317318391        0.00000000    
   0.0000000000000000       0.20922959204332894        0.00000000    
  -5.3596010290282277E-002  0.20785165900986463        0.00000000    
 -0.10650600009249213       0.20360392855494799        0.00000000    
 -0.15798182102227662       0.19663470630036925        0.00000000    
 -0.20741271756383745       0.18687294564274756        0.00000000    
 -0.25400600543362140       0.17450017008218954        0.00000000    
 -0.29723906386319282       0.15950364680422857        0.00000000    
 -0.33630075776445023       0.14210344337601638        0.00000000    
 -0.37077305123504978       0.12236564221283268        0.00000000    
 -0.39986425164269318       0.10055833444164433        0.00000000    
 -0.42328380986389585        7.6848403247884556E-002   0.00000000    
 -0.44031089195998596        5.1561521627441577E-002   0.00000000    
 -0.45081270050210026        2.4983253927884846E-002   0.00000000    
 -0.45420306793419113       -2.4993506951394278E-003   0.00000000    
 -0.45054228162976778       -3.0475580052454383E-002   0.00000000    
 -0.43944968028626591       -5.8505818167027247E-002   0.00000000    
 -0.42121244690175536       -8.6066851341305400E-002   0.00000000    
 -0.39572288022833463      -0.11269376642302473        0.00000000    
 -0.36351642737082690      -0.13778803704457376        0.00000000    
 -0.32480766359557300      -0.16090703124312908        0.00000000    
 -0.28037600483649294      -0.18143842306849794        0.00000000    
 -0.23077358356906644      -0.19902462939688298        0.00000000    
 -0.17698271616396583      -0.21311694796435354        0.00000000    
 -0.11986273144875530      -0.22350786930369007        0.00000000    
  -6.0517635265319454E-002 -0.22978945075826471        0.00000000    
  -3.6427728674458848E-005 -0.23195366937978557        0.00000000    
   6.0468110618494324E-002 -0.22979074316157724        0.00000000    
  0.11979048803767291      -0.22350956993604879        0.00000000    
  0.17693395053614430      -0.21312082710666411        0.00000000    
  0.23070318374496943      -0.19902807024873084        0.00000000    
  0.28032879204269223      -0.18144487588136127        0.00000000    
  0.32474034776270033      -0.16091225302512771        0.00000000    
  0.36347160341947038      -0.13779699443250412        0.00000000    
  0.39565986838723100      -0.11270075511131843        0.00000000    
  0.42117085919833758       -8.6078143518748401E-002   0.00000000    
  0.43939211265660860       -5.8514459560986991E-002   0.00000000    
  0.45050472442549072       -3.0488917164556529E-002   0.00000000    
  0.45415193000664772       -2.5094147181571476E-003   0.00000000    
  0.45077984394997689        2.4968265871760445E-002   0.00000000    
  0.44026695108013186        5.1550355040631504E-002   0.00000000    
  0.42325614228896113        7.6832211507299839E-002   0.00000000    
  0.39982802556444241       0.10054642006765525        0.00000000    
  0.37075086228146320       0.12234867987073880        0.00000000    
  0.33627252844547001       0.14209110731937727        0.00000000    
  0.29722246725603801       0.15948627162445594        0.00000000    
  0.25398587076164186       0.17448765735518576        0.00000000    
  0.20740170660151161       0.18685540058432124        0.00000000    
  0.15796977046303617       0.19662215698553651        0.00000000    
  0.10650051796166957       0.20358633965388270        0.00000000    
   5.3592000618886929E-002  0.20783911931974175        0.00000000    
   0.0000000000000000       0.20921199953195421        0.00000000    
   0.0000000000000000       0.26364866238943463        0.00000000    
  -5.4819529432739371E-002  0.26184958007906600        0.00000000    
 -0.10892140369993245       0.25661932317612751        0.00000000    
 -0.16165977981928842       0.24783496012096787        0.00000000    
 -0.21225631207542725       0.23570157180112566        0.00000000    
 -0.26014578364343399       0.22015575409603863        0.00000000    
 -0.30450716698008751       0.20144395494750250        0.00000000    
 -0.34486688656024256       0.17958599845968393        0.00000000    
 -0.38039045815221972       0.15488040147526028        0.00000000    
 -0.41071323544117821       0.12745900134599472        0.00000000    
 -0.43503119561983478        9.7686702653312280E-002   0.00000000    
 -0.45311506515091315        6.5835620819266097E-002   0.00000000    
 -0.46425138314602055        3.2348727612188696E-002   0.00000000    
 -0.46838220514137835       -2.3421896271842916E-003   0.00000000    
 -0.46495869788164973       -3.7715590027337480E-002   0.00000000    
 -0.45413580429762113       -7.3179859489026250E-002   0.00000000    
 -0.43560956874106538      -0.10815483599289571        0.00000000    
 -0.40978541972686222      -0.14191805546204533        0.00000000    
 -0.37667647639284224      -0.17387770281389117        0.00000000    
 -0.33695748775406037      -0.20324367734822105        0.00000000    
 -0.29100373241627936      -0.22948575103974139        0.00000000    
 -0.23974287686812096      -0.25183913887076409        0.00000000    
 -0.18391163421179998      -0.26992310956482979        0.00000000    
 -0.12462752406883786      -0.28310436397591082        0.00000000    
  -6.2931662572194361E-002 -0.29123247539696240        0.00000000    
  -2.2645956739729915E-005 -0.29389943064091045        0.00000000    
   6.2862771697592093E-002 -0.29123349968160600        0.00000000    
  0.12458256641865306      -0.28310754715580116        0.00000000    
  0.18384390998842806      -0.26992621740161871        0.00000000    
  0.23969894948543788      -0.25184551364249813        0.00000000    
  0.29093836523469324      -0.22949101719544523        0.00000000    
  0.33691535156368663      -0.20325321371129218        0.00000000    
  0.37661467339156718      -0.17388517072152884        0.00000000    
  0.40974588986087257      -0.14193061885027311        0.00000000    
  0.43555250228456588      -0.10816444104607068        0.00000000    
  0.45409969112221604       -7.3195161338969028E-002   0.00000000    
  0.46490742064746438       -3.7727113076438216E-002   0.00000000    
  0.46835022484229100       -2.3597839049864225E-003   0.00000000    
  0.46420674042379939        3.2335650834649635E-002   0.00000000    
  0.45308775933782758        6.5816290389178383E-002   0.00000000    
  0.43499376853014965        9.7672522706531970E-002   0.00000000    
  0.41069092681993896       0.12743851522628497        0.00000000    
  0.38036055409442227       0.15486556917261471        0.00000000    
  0.34484968483070044       0.17956487041035515        0.00000000    
  0.30448486506724148       0.20142883921689517        0.00000000    
  0.26013364085383572       0.22013436086743371        0.00000000    
  0.21224154682608734       0.23568640598268578        0.00000000    
  0.16165257273818781       0.24781351299717888        0.00000000    
  0.10891406142220288       0.25660419884393315        0.00000000    
   5.4817142473936646E-002  0.26182814804046778        0.00000000    
   0.0000000000000000       0.26363356559153084        0.00000000    
   0.0000000000000000       0.31931396953927316        0.00000000    
  -5.6248009104144382E-002  0.31725320173566229        0.00000000    
 -0.11181862288478792       0.31088957971193565        0.00000000    
 -0.16596183296627734       0.30044767978979209        0.00000000    
 -0.21807762036738537       0.28580256142342636        0.00000000    
 -0.26735288038628385       0.26722088541735456        0.00000000    
 -0.31326994228630295       0.24465865762008179        0.00000000    
 -0.35497186630836669       0.21843432774228572        0.00000000    
 -0.39203341103705741       0.18861857606346596        0.00000000    
 -0.42358762511519993       0.15559920515877024        0.00000000    
 -0.44932138761456286       0.11959960758418423        0.00000000    
 -0.46841000386468473        8.1096587128945324E-002   0.00000000    
 -0.48068482725765133        4.0500287066357166E-002   0.00000000    
 -0.48543543759430080       -1.6109330401167716E-003   0.00000000    
 -0.48268228046036538       -4.4622128435668262E-002   0.00000000    
 -0.47191717745410389       -8.7859935787729493E-002   0.00000000    
 -0.45340015117588850      -0.13051664076342376        0.00000000    
 -0.42691771765394065      -0.17186145312945780        0.00000000    
 -0.39301172433284864      -0.21094786272312066        0.00000000    
 -0.35184042418775846      -0.24706242774168791        0.00000000    
 -0.30424113441620643      -0.27921866811704721        0.00000000    
 -0.25078055316341641      -0.30682628143582280        0.00000000    
 -0.19255622044380727      -0.32899016581147433        0.00000000    
 -0.13051825762672825      -0.34535800444733983        0.00000000    
  -6.5930234797893894E-002 -0.35526134330114628        0.00000000    
  -3.2153653082763266E-005 -0.35867628468411428        0.00000000    
   6.5890372786430590E-002 -0.35526321388029158        0.00000000    
  0.13045449230848050      -0.34536037128972558        0.00000000    
  0.19251692715859572      -0.32899579540760421        0.00000000    
  0.25071843795705900      -0.30683110940663783        0.00000000    
  0.30420305207418241      -0.27922807410289940        0.00000000    
  0.35178111636475357      -0.24706982982250469        0.00000000    
  0.39297559449647473      -0.21096097605503258        0.00000000    
  0.42686239368150714      -0.17187145012842239        0.00000000    
  0.45336677098547257      -0.13053321936673465        0.00000000    
  0.47186694571728205       -8.7872365855560866E-002   0.00000000    
  0.48265240471740967       -4.4641715174879110E-002   0.00000000    
  0.48539122737874213       -1.6254261207117075E-003   0.00000000    
  0.48065905618742405        4.0478332392593561E-002   0.00000000    
  0.46837247147065031        8.1080558982659437E-002   0.00000000    
  0.44930008734305793       0.11957601452669511        0.00000000    
  0.42355711347324909       0.15558222502828922        0.00000000    
  0.39201669329961808       0.18859403931834598        0.00000000    
  0.35494843451984592       0.21841691583861977        0.00000000    
  0.31325770983294671       0.24463372660225963        0.00000000    
  0.26733639010352034       0.26720340616650157        0.00000000    
  0.21806965972218936       0.28577757445529017        0.00000000    
  0.16595206493612286       0.30043030302094215        0.00000000    
  0.11181471137464971       0.31086466370288018        0.00000000    
   5.6244776927786060E-002  0.31723592671398521        0.00000000    
   0.0000000000000000       0.31928909658637444        0.00000000    
   0.0000000000000000       0.37660828152781833        0.00000000    
  -5.7886858527670774E-002  0.37409508629667293        0.00000000    
 -0.11506529583670444       0.36679807508780338        0.00000000    
 -0.17090629076563241       0.35452471799994972        0.00000000    
 -0.22462304839422970       0.33755939660866568        0.00000000    
 -0.27566473691370558       0.31578232660331973        0.00000000    
 -0.32317476918583438       0.28952563809524362        0.00000000    
 -0.36668237712606699       0.25877820594551437        0.00000000    
 -0.40528290850333853       0.22393810021465418        0.00000000    
 -0.43859615143728159       0.18514846328842618        0.00000000    
 -0.46570995088022604       0.14289923609046543        0.00000000    
 -0.48635906666958167        9.7536014215635944E-002   0.00000000    
 -0.49968787741965859        4.9665817017658466E-002   0.00000000    
 -0.50558785250632232       -1.2455591339812495E-004   0.00000000    
 -0.50334845310238174       -5.1099741154427079E-002   0.00000000    
 -0.49307526893067610      -0.10241929056750090        0.00000000    
 -0.47430954009589704      -0.15323872213415754        0.00000000    
 -0.44743358433302360      -0.20249644328848493        0.00000000    
 -0.41234797593247635      -0.24930315720604670        0.00000000    
 -0.36975842964537853      -0.29246666366876861        0.00000000    
 -0.32000498647678627      -0.33116584968881047        0.00000000    
 -0.26411942653318365      -0.36422392643847906        0.00000000    
 -0.20290151588266506      -0.39103344999349882        0.00000000    
 -0.13764388873441194      -0.41060899655164917        0.00000000    
  -6.9543766169207294E-002 -0.42269718316467808        0.00000000    
  -1.6745895036330485E-005 -0.42666423295685540        0.00000000    
   6.9485255572228816E-002 -0.42269848027852414        0.00000000    
  0.13761060710971473      -0.41061326247865182        0.00000000    
  0.20284400076913933      -0.39103741909590578        0.00000000    
  0.26408683190985516      -0.36423251342754520        0.00000000    
  0.31994952993184500      -0.33117266764469017        0.00000000    
  0.36972713510146848      -0.29247959025760711        0.00000000    
  0.41229571832391210      -0.24931296099550748        0.00000000    
  0.44740433169512694      -0.20251356062579476        0.00000000    
  0.47426162479536171      -0.15325146155939653        0.00000000    
  0.49304883262954591      -0.10244018723161455        0.00000000    
  0.50330589503298229       -5.1115095560529296E-002   0.00000000    
  0.50556489693413398       -1.4854932134074881E-004   0.00000000    
  0.49965142765481746        4.9648417684804776E-002   0.00000000    
  0.48634002040230379        9.7509788580274495E-002   0.00000000    
  0.46568000995162434       0.14288050303129401        0.00000000    
  0.43858114490822470       0.18512090015110350        0.00000000    
  0.40525952539462440       0.22391872912647204        0.00000000    
  0.36667126646605314       0.25875007000271238        0.00000000    
  0.32315772311597790       0.28950616717090494        0.00000000    
  0.27565720006996580       0.31575413587247869        0.00000000    
  0.22461198234222554       0.33754012067576222        0.00000000    
  0.17090196001878602       0.35449670228064745        0.00000000    
  0.11505986611120986       0.36677904047737492        0.00000000    
   5.7885450231045500E-002  0.37406722911349799        0.00000000    
   0.0000000000000000       0.37658935025806045        0.00000000    
   0.0000000000000000       0.43548943117900563        0.00000000    
  -5.9659213922533587E-002  0.43276127679868692        0.00000000    
 -0.11866304818190807       0.42431542370804254        0.00000000    
 -0.17626865298573777       0.41045523652493665        0.00000000    
 -0.23190101971243773       0.39097926940911581        0.00000000    
 -0.28472766465826865       0.36623205395797581        0.00000000    
 -0.33424735390964661       0.33610689823417517        0.00000000    
 -0.37954650817196278       0.30100497356557421        0.00000000    
 -0.42019743801584508       0.26096405840268261        0.00000000    
 -0.45523133673561517       0.21647091080464254        0.00000000    
 -0.48430686253994260       0.16776737669385311        0.00000000    
 -0.50645035520081227       0.11546174429323051        0.00000000    
 -0.52143934215964305        6.0059145549213641E-002   0.00000000    
 -0.52837603395917121        2.3200426216956707E-003   0.00000000    
 -0.52721295088185494       -5.6945563400367188E-002   0.00000000    
 -0.51723967643541346      -0.11681866892930681        0.00000000    