 <VTKFile type="UnstructuredGrid" version="0.1" byte_order="BigEndian">
 <UnstructuredGrid>
 <Piece NumberOfPoints="        2601 " NumberOfCells="        2500 ">
 <PointData Scalars="scalars">
 <DataArray type="Float32" NumberOfComponents="3" Name="Velocity" Format="ascii">
   0.0000000000000000        0.0000000000000000        0.00000000    
  -7.5136367332282572E-002   0.0000000000000000        0.00000000    
 -0.15195494799875126        0.0000000000000000        0.00000000    
 -0.23136663725032541        0.0000000000000000        0.00000000    
 -0.31649834220294149        0.0000000000000000        0.00000000    
 -0.40778315780015090        0.0000000000000000        0.00000000    
 -0.51144050759453896        0.0000000000000000        0.00000000    
 -0.62720614777242245        0.0000000000000000        0.00000000    
 -0.76815951369789204        0.0000000000000000        0.00000000    
 -0.92560220856869302        0.0000000000000000        0.00000000    
  -1.0277960502271317        0.0000000000000000        0.00000000    
  -1.0290673379580304        0.0000000000000000        0.00000000    
  -1.1705031025475852        0.0000000000000000        0.00000000    
  -1.1683203977799217        0.0000000000000000        0.00000000    
 -0.87898978386079918        0.0000000000000000        0.00000000    
 -0.87995800670153501        0.0000000000000000        0.00000000    
 -0.84076113729450386        0.0000000000000000        0.00000000    
 -0.63329966365379864        0.0000000000000000        0.00000000    
 -0.48894752662319757        0.0000000000000000        0.00000000    
 -0.38393399391770466        0.0000000000000000        0.00000000    
 -0.31387955805559409        0.0000000000000000        0.00000000    
 -0.22971509994681952        0.0000000000000000        0.00000000    
 -0.15917839852531362        0.0000000000000000        0.00000000    
  -6.9111441056672218E-002   0.0000000000000000        0.00000000    
  -1.1874534482087203E-002   0.0000000000000000        0.00000000    
  -8.9356349548852174E-003   0.0000000000000000        0.00000000    
   3.9747351982154851E-002   0.0000000000000000        0.00000000    
  0.11753743398891960        0.0000000000000000        0.00000000    
  0.18962491827500388        0.0000000000000000        0.00000000    
  0.26340194729336663        0.0000000000000000        0.00000000    
  0.37302067945677231        0.0000000000000000        0.00000000    
  0.41475650920483859        0.0000000000000000        0.00000000    
  0.43892445009389303        0.0000000000000000        0.00000000    
  0.50168761732192269        0.0000000000000000        0.00000000    
  0.65062509912332711        0.0000000000000000        0.00000000    
  0.85344621788117581        0.0000000000000000        0.00000000    
  0.99470051618780198        0.0000000000000000        0.00000000    
   1.1460811236322699        0.0000000000000000        0.00000000    
   1.1305644598512723        0.0000000000000000        0.00000000    
   1.0615241703474962        0.0000000000000000        0.00000000    
   1.0365043074264531        0.0000000000000000        0.00000000    
  0.92359856276169294        0.0000000000000000        0.00000000    
  0.76077127211867646        0.0000000000000000        0.00000000    
  0.62267836426848200        0.0000000000000000        0.00000000    
  0.50707455748004271        0.0000000000000000        0.00000000    
  0.40493607159840689        0.0000000000000000        0.00000000    
  0.31406113964948862        0.0000000000000000        0.00000000    
  0.22983474551223201        0.0000000000000000        0.00000000    
  0.15085081686407020        0.0000000000000000        0.00000000    
   7.4652771972488347E-002   0.0000000000000000        0.00000000    
   0.0000000000000000        0.0000000000000000        0.00000000    
   0.0000000000000000        7.3833220183139120E-002   0.00000000    
  -7.3092602362020448E-002   7.4395749509820336E-002   0.00000000    
 -0.14723452383135613        7.6564752624633095E-002   0.00000000    
 -0.22441871071771324        8.0031123511931049E-002   0.00000000    
 -0.30500931570987960        8.5691186431460842E-002   0.00000000    
 -0.39264150839462297        9.3225821849066456E-002   0.00000000    
 -0.48671243570987238       0.10450245525910462        0.00000000    
 -0.59382270040829699       0.11837344961568239        0.00000000    
 -0.70909900399743009       0.13785621989735811        0.00000000    
 -0.83854667393147575       0.14903414490590733        0.00000000    
 -0.94598706579743896        6.0600088617397671E-002   0.00000000    
  -1.0724387743995341        6.7122907715504845E-002   0.00000000    
  -1.1359540587203822       0.13782814119736572        0.00000000    
  -1.0161329430276520      -0.25983196163853267        0.00000000    
 -0.92240522025529004      -0.12322637502679087        0.00000000    
 -0.77921770520280664       -1.8992917172968752E-002   0.00000000    
 -0.64448025994127556      -0.15494139747701782        0.00000000    
 -0.54682164393552257      -0.15017869214557197        0.00000000    
 -0.44345738828177755       -9.7537700515302625E-002   0.00000000    
 -0.37028613309511277       -8.0647087354269550E-002   0.00000000    
 -0.28619540762927859       -7.3498073951350412E-002   0.00000000    
 -0.22580003963870979       -7.1061752126443486E-002   0.00000000    
 -0.14885656519812362       -7.6418423714219960E-002   0.00000000    
  -8.3881644028307528E-002  -7.8623454903347184E-002   0.00000000    
  -3.3650026703904851E-002  -2.8845068974476484E-002   0.00000000    
   1.5964900616468804E-002  -2.3708757855662510E-002   0.00000000    
   5.6948857583608868E-002  -6.5958186027165897E-002   0.00000000    
  0.10872097048239078       -6.3604008856972163E-002   0.00000000    
  0.17441984269669367       -7.4182347621443989E-002   0.00000000    
  0.24920507152603422       -7.4379910203598548E-002   0.00000000    
  0.31054022462460701       -9.6573975035158452E-002   0.00000000    
  0.39403582503570811       -2.8657455099438834E-002   0.00000000    
  0.42565376513044539       -2.7128425864093628E-002   0.00000000    
  0.50729850539024735      -0.11727948159718272        0.00000000    
  0.60928894984028836      -0.13364844462760131        0.00000000    
  0.74157114604461283      -0.20145487030649450        0.00000000    
  0.93218655247239257      -0.13041483439988663        0.00000000    
  0.98412590044062165       -7.2905120987596217E-002   0.00000000    
   1.1256511121473320       -5.3103426914915541E-002   0.00000000    
   1.1190731754605969       0.12872165313845535        0.00000000    
  0.94344932717790275        7.1922058065711364E-002   0.00000000    
  0.83141379878743549       0.15301921498821167        0.00000000    
  0.70485393492318804       0.13636793951738044        0.00000000    
  0.58895109409276902       0.11762780916163174        0.00000000    
  0.48350045219387855       0.10342663952414675        0.00000000    
  0.38968244796299467        9.2529850586889131E-002   0.00000000    
  0.30305922325652607        8.4968306067056618E-002   0.00000000    
  0.22282902078532937        7.9488290539996356E-002   0.00000000    
  0.14632109308402813        7.6003565808089077E-002   0.00000000    
   7.2590493127443464E-002   7.3925079038717936E-002   0.00000000    
   0.0000000000000000        7.3318186059861734E-002   0.00000000    
   0.0000000000000000       0.14342193432578010        0.00000000    
  -6.6874913736870142E-002  0.14477455146472598        0.00000000    
 -0.13463824741817537       0.14809120581901614        0.00000000    
 -0.20343654765056318       0.15448715743492755        0.00000000    
 -0.27483866141860064       0.16322787126727620        0.00000000    
 -0.34777202132942708       0.17625468960740071        0.00000000    
 -0.42412716974645948       0.19189966323158247        0.00000000    
 -0.49919897909512373       0.21315831568877744        0.00000000    
 -0.57168017601814747       0.23082885433481928        0.00000000    
 -0.62231565567191838       0.23614466005461393        0.00000000    
 -0.67190037827325655       0.13051468793391133        0.00000000    
 -0.70621072973874233       0.15797036848030541        0.00000000    
 -0.67206456882799503        7.6349803860101512E-002   0.00000000    
 -0.78148770361036934      -0.20875160518380545        0.00000000    
 -0.73746631232301851      -0.31205584551810622        0.00000000    
 -0.49195312122202800      -0.21886415280962332        0.00000000    
 -0.38482910123665698      -0.19693162706362205        0.00000000    
 -0.39052494313349462      -0.20015123664357126        0.00000000    
 -0.36298718095276505      -0.17846717382891530        0.00000000    
 -0.28882239749097077      -0.14705365266599243        0.00000000    
 -0.24682174422763495      -0.13318288734711489        0.00000000    
 -0.17701716477582854      -0.14157688615101446        0.00000000    
 -0.12665763105807404      -0.13320629782722598        0.00000000    
  -8.6723681136260181E-002 -0.12674445186073735        0.00000000    
  -3.2100306835170060E-002  -8.5579063622373414E-002   0.00000000    
   2.4620253992656164E-002  -7.3310251335260854E-002   0.00000000    
   6.5398842472198543E-002  -9.8119237973728110E-002   0.00000000    
   9.0599863416369580E-002 -0.10841609073191072        0.00000000    
  0.12355429284537083      -0.12802356736801884        0.00000000    
  0.18711897300601055      -0.15888859942464309        0.00000000    
  0.24096220067539720      -0.12724366655841035        0.00000000    
  0.28213840609075130      -0.12265956937934813        0.00000000    
  0.42555992355532352      -0.10816576911782570        0.00000000    
  0.44022972302451180      -0.13255667804746901        0.00000000    
  0.48081916831998994      -0.26095113789475505        0.00000000    
  0.57750348404287088      -0.30311868893950894        0.00000000    
  0.64939429685364758      -0.29125723497587225        0.00000000    
  0.79318916651252902      -0.10779693801168679        0.00000000    
  0.69897373621067849       -6.5521391262104739E-002   0.00000000    
  0.63896412559480409       0.20772716480910056        0.00000000    
  0.66240787670389811       0.14509664360331506        0.00000000    
  0.61905159815138189       0.23523643639143871        0.00000000    
  0.56903208108581504       0.23073009904229880        0.00000000    
  0.49701286407971540       0.21118770747158647        0.00000000    
  0.42166818203727513       0.19066206515399373        0.00000000    
  0.34600221910368717       0.17477839212002216        0.00000000    
  0.27318983942956648       0.16215536891308369        0.00000000    
  0.20236592836447714       0.15335534122885103        0.00000000    
  0.13383335338292993       0.14717701780070983        0.00000000    
   6.6521274205523298E-002  0.14379430617872691        0.00000000    
   0.0000000000000000       0.14256072625146782        0.00000000    
   0.0000000000000000       0.20586262246302720        0.00000000    
  -5.7722937229244403E-002  0.20693171429225535        0.00000000    
 -0.11531942489027996       0.21129386433248437        0.00000000    
 -0.17305401473514451       0.21781738899735148        0.00000000    
 -0.22980297494225718       0.22804871367862534        0.00000000    
 -0.28542928065785345       0.23999351282105974        0.00000000    
 -0.33637230380381822       0.25545901157947398        0.00000000    
 -0.37950959464192863       0.26780806752614184        0.00000000    
 -0.40558791335353461       0.27473861813049816        0.00000000    
 -0.40579794325177482       0.24308040580916238        0.00000000    
 -0.40372194740685530       0.17108766893343191        0.00000000    
 -0.36441735982310647       0.11240315135985852        0.00000000    
 -0.29189845229659284        1.5251952576730675E-002   0.00000000    
 -0.21126517197385392      -0.11886389941974643        0.00000000    
 -0.29260730355700737      -0.36462281096029731        0.00000000    
 -0.42238183484322300      -0.28203584715797853        0.00000000    
 -0.40118908990520447      -0.26207669761319385        0.00000000    
 -0.31673168167347898      -0.21376773240576402        0.00000000    
 -0.24966599216137580      -0.25945412973550169        0.00000000    
 -0.19935835861563758      -0.19053911374506399        0.00000000    
 -0.13625732466444732      -0.19479911345992856        0.00000000    
 -0.10194500111761053      -0.18407756301611986        0.00000000    
  -6.2433143706431368E-002 -0.18057701206929139        0.00000000    
  -3.2051999251334097E-002 -0.14968883197569113        0.00000000    
  -1.9346694283866130E-002 -0.12996336275539999        0.00000000    
   1.1261790934738933E-002 -0.11625499822889473        0.00000000    
   2.8566284900358015E-002 -0.11325757350457842        0.00000000    
   3.5774982184137175E-002 -0.12568747340835892        0.00000000    
   7.0302640128971167E-002 -0.17823427204359851        0.00000000    
   9.7210128357533898E-002 -0.19915006311582428        0.00000000    
  0.12995396594913922      -0.17356926810577453        0.00000000    
  0.19896719621292572      -0.18652340348615115        0.00000000    
  0.25205222870152250      -0.24080848494098989        0.00000000    
  0.38093919451886338      -0.14347072748357809        0.00000000    
  0.44377114390365024      -0.35345848311310840        0.00000000    
  0.39900829643862945      -0.26253281194859202        0.00000000    
  0.32228858713653924      -0.32701421544781412        0.00000000    
  0.25128050278694786      -0.14482674281873265        0.00000000    
  0.30449631073622258        1.2508035922397024E-002   0.00000000    
  0.37503937883238569       0.11916428018531855        0.00000000    
  0.40828679943208118       0.17696835651582291        0.00000000    
  0.40940097783175272       0.24560682362958694        0.00000000    
  0.40603595735734876       0.27374424934230662        0.00000000    
  0.37924445151249203       0.26698428002095426        0.00000000    
  0.33575774925843593       0.25369687689957865        0.00000000    
  0.28449347416802689       0.23867381839698351        0.00000000    
  0.22907403904727061       0.22649175742956890        0.00000000    
  0.17234195137636116       0.21657495144698299        0.00000000    
  0.11489573395799287       0.20993619998112276        0.00000000    
   5.7470307687293859E-002  0.20577262944507016        0.00000000    
   0.0000000000000000       0.20457398487659595        0.00000000    
   0.0000000000000000       0.25776862321385940        0.00000000    
  -4.6541309518541185E-002  0.25928996028788448        0.00000000    
  -9.2497672383279370E-002  0.26248846886129712        0.00000000    
 -0.13678475029726289       0.26864445222604688        0.00000000    
 -0.17849916454626463       0.27568502490467955        0.00000000    
 -0.21519621700261721       0.28468055976557155        0.00000000    
 -0.24419122124087084       0.29070999201774916        0.00000000    
 -0.26098908361622541       0.29249224029986176        0.00000000    
 -0.25996985296550701       0.27511353341609623        0.00000000    
 -0.24796267172973577       0.23090833918431922        0.00000000    
 -0.22729171271967280       0.16051278070141276        0.00000000    
 -0.20716326582525504        6.3545005112219055E-002   0.00000000    
 -0.17201392272851468       -4.3558151800036540E-002   0.00000000    
 -0.14650799494677519      -0.16619300314264174        0.00000000    
 -0.13986162948213465      -0.24259794109294558        0.00000000    
 -0.13399048109810172      -0.28015733409594390        0.00000000    
 -0.13027619989493897      -0.28886223679887013        0.00000000    
 -0.12275787260458750      -0.27895792873130654        0.00000000    
 -0.11653058386868660      -0.26755691165298356        0.00000000    
 -0.10988649153922249      -0.23938805769588462        0.00000000    
  -9.9363088588166712E-002 -0.21957460640997950        0.00000000    
  -8.6234468805617331E-002 -0.20674301339305939        0.00000000    
  -7.6801109558012712E-002 -0.20685677834998614        0.00000000    
  -5.7574268825035066E-002 -0.17301705088023328        0.00000000    
  -2.6893575415023418E-002 -0.15002114222821120        0.00000000    
  -1.8259591006729852E-003 -0.15187332028779599        0.00000000    
   2.8615580937666644E-002 -0.12538528544937078        0.00000000    
   6.3557814517985783E-002 -0.15571069232748119        0.00000000    
   8.2403672130656497E-002 -0.20158456868076621        0.00000000    
   8.8451519389671399E-002 -0.20875510196230182        0.00000000    
  0.10138721760681046      -0.20964376506630375        0.00000000    
  0.11427038463677278      -0.23234530381795196        0.00000000    
  0.12091727867743714      -0.25471851112888461        0.00000000    
  0.13081756606442027      -0.26834795449772098        0.00000000    
  0.13400140884501990      -0.29459704824013766        0.00000000    
  0.13599234335474081      -0.27862233384568180        0.00000000    
  0.14339994388237395      -0.24161258475089820        0.00000000    
  0.15079838724697636      -0.16661873250105588        0.00000000    
  0.17397419407834930       -4.2091589169661534E-002   0.00000000    
  0.20439738898994211        7.2797642268470436E-002   0.00000000    
  0.22966924607300376       0.16481571674831222        0.00000000    
  0.25138746786418104       0.23492706320437629        0.00000000    
  0.26286947832634899       0.27630701977808952        0.00000000    
  0.26230455610093262       0.29177793765385629        0.00000000    
  0.24481630777512789       0.28987816984507581        0.00000000    
  0.21540297985997725       0.28317012845559791        0.00000000    
  0.17840333757181820       0.27441452477848688        0.00000000    
  0.13667663771727290       0.26711097162214403        0.00000000    
   9.2339662531787062E-002  0.26118337240847267        0.00000000    
   4.6474221525591754E-002  0.25781632429327483        0.00000000    
   0.0000000000000000       0.25647481923994725        0.00000000    
   0.0000000000000000       0.29898907446953010        0.00000000    
  -3.4791963296236635E-002  0.29940278184568542        0.00000000    
  -6.8416854142444611E-002  0.30195690101313366        0.00000000    
  -9.9652398642768619E-002  0.30469864248719514        0.00000000    
 -0.12675741642715335       0.30845026667558700        0.00000000    
 -0.14762948867726597       0.30948444269976805        0.00000000    
 -0.15986598155199733       0.30713760619516034        0.00000000    
 -0.16019606184688101       0.29319256879125721        0.00000000    
 -0.15033394853586290       0.26353186096149545        0.00000000    
 -0.13102973759199210       0.21117861945773420        0.00000000    
 -0.10887641878307497       0.13741822260756623        0.00000000    
  -8.3786742629361408E-002   4.1421440156503134E-002   0.00000000    
  -7.2058180547038608E-002  -6.8312492024765928E-002   0.00000000    
  -7.3420348430363741E-002 -0.16558242281723609        0.00000000    
  -8.5194993922486792E-002 -0.23808024139125825        0.00000000    
  -9.9988824654236155E-002 -0.27575235145015131        0.00000000    
 -0.10938230755872988      -0.28758801774344994        0.00000000    
 -0.11372739368308787      -0.28340538895281897        0.00000000    
 -0.11400312505136051      -0.26906100879912415        0.00000000    
 -0.10940788949193858      -0.24912328843867387        0.00000000    
  -9.9130297685247087E-002 -0.23064037042491850        0.00000000    
  -8.7660863100368844E-002 -0.22027530374555093        0.00000000    
  -8.0979415342491534E-002 -0.20943929500291392        0.00000000    
  -6.6770769303131847E-002 -0.20387002099961993        0.00000000    
  -3.1359890496820142E-002 -0.18525974432494727        0.00000000    
  -4.9945595827169051E-003 -0.16806766541947102        0.00000000    
   2.6785749076878463E-002 -0.17141278901551196        0.00000000    
   7.1336777274005739E-002 -0.18917645053865373        0.00000000    
   8.7467150367992186E-002 -0.20309504117620417        0.00000000    
   9.0683798116823588E-002 -0.21650912447465939        0.00000000    
  0.10087242005744877      -0.22501406271168753        0.00000000    
  0.11168555233281319      -0.24067130547788027        0.00000000    
  0.11794463211151519      -0.25929848328837324        0.00000000    
  0.12020831492268992      -0.27593195253640312        0.00000000    
  0.11590998309519449      -0.28589856115468731        0.00000000    
  0.10277972897095397      -0.27618150131669306        0.00000000    
   8.8119020196730416E-002 -0.23680030903355634        0.00000000    
   7.4724160358542832E-002 -0.16543459174517303        0.00000000    
   7.1228086842435548E-002  -6.2955463241859994E-002   0.00000000    
   8.6953887518364567E-002   4.7512520751924373E-002   0.00000000    
  0.11091836694051511       0.14086450175824591        0.00000000    
  0.13337273406560146       0.21470568927673550        0.00000000    
  0.15302812707777624       0.26539099022983931        0.00000000    
  0.16247729909707809       0.29380971740677642        0.00000000    
  0.16131618693675825       0.30649575057683498        0.00000000    
  0.14857302632230007       0.30870903625207746        0.00000000    
  0.12732759936692364       0.30712068622416988        0.00000000    
   9.9952364765978657E-002  0.30350674463062172        0.00000000    
   6.8589344341545469E-002  0.30048759500858263        0.00000000    
   3.4852745569836197E-002  0.29811414146975790        0.00000000    
   0.0000000000000000       0.29750396915758048        0.00000000    
   0.0000000000000000       0.32804508395220577        0.00000000    
  -2.3430299200431721E-002  0.32856903485839645        0.00000000    
  -4.5502764747110500E-002  0.32848800439202208        0.00000000    
  -6.4805855978627910E-002  0.32870617483885894        0.00000000    
  -7.9620627063516303E-002  0.32636252319188935        0.00000000    
  -8.8467160089200192E-002  0.32129079145795131        0.00000000    
  -8.9192654534107976E-002  0.30829324475527470        0.00000000    
  -8.2186126021350808E-002  0.28536048201192299        0.00000000    
  -6.6968667909308222E-002  0.24628437631638564        0.00000000    
  -4.8193981840039958E-002  0.19034720708835862        0.00000000    
  -2.7280571143105642E-002  0.11518290546974989        0.00000000    
  -1.4214570850244653E-002   2.5501080846490186E-002   0.00000000    
  -1.0263110056888401E-002  -6.8072155591507866E-002   0.00000000    
  -2.0303657828840666E-002 -0.15442004359607051        0.00000000    
  -3.8981405193258246E-002 -0.21879022775651319        0.00000000    
  -5.9970385867280471E-002 -0.25925955367951137        0.00000000    
  -7.8032235028412236E-002 -0.27662548344876509        0.00000000    
  -9.0083867210082394E-002 -0.27797120494166738        0.00000000    
  -9.5620547701064471E-002 -0.26868278095119719        0.00000000    
  -9.4846349330484581E-002 -0.25487095021670308        0.00000000    
  -8.9007518500199750E-002 -0.24100913128397711        0.00000000    
  -8.1084607021992605E-002 -0.22929888894962108        0.00000000    
  -6.8573184065580162E-002 -0.21960858051320539        0.00000000    
  -5.3979124193934587E-002 -0.22250344140029557        0.00000000    
  -3.8199295792665414E-002 -0.21781703113197703        0.00000000    
  -1.7346618478132994E-003 -0.19834034347137963        0.00000000    
   3.5305877830912533E-002 -0.20996095930196315        0.00000000    
   5.4348121294240319E-002 -0.21422155191274106        0.00000000    
   7.1820858591183812E-002 -0.21165305019301969        0.00000000    
   8.4249368288718193E-002 -0.22359627290426135        0.00000000    
   9.1162176099633938E-002 -0.23502834403367456        0.00000000    
   9.7194590389670155E-002 -0.24750257072139900        0.00000000    
   9.9460717975390370E-002 -0.26099242540937118        0.00000000    
   9.5069208987049444E-002 -0.27211018423842970        0.00000000    
   8.2677807526839869E-002 -0.27303059616512421        0.00000000    
   6.4105884095072313E-002 -0.25734728875057472        0.00000000    
   4.1021841093550525E-002 -0.21788976982428132        0.00000000    
   2.1273061958240164E-002 -0.15120149198163929        0.00000000    
   1.2055580011676521E-002  -6.4475007543504978E-002   0.00000000    
   1.5344673562620523E-002   3.0017170825578789E-002   0.00000000    
   3.0149445031623492E-002  0.11959060079224779        0.00000000    
   5.0653839303943245E-002  0.19302082884398611        0.00000000    
   6.9521377934388937E-002  0.24855291901864465        0.00000000    
   8.4477325109335699E-002  0.28624266942233023        0.00000000    
   9.1134930138256021E-002  0.30856630569135007        0.00000000    
   8.9849988626783645E-002  0.32066658326214087        0.00000000    
   8.0617119060675382E-002  0.32564143573428611        0.00000000    
   6.5459427569234299E-002  0.32751892121157600        0.00000000    
   4.5895747426338951E-002  0.32740211899366800        0.00000000    
   2.3616524168716620E-002  0.32721543951271087        0.00000000    
   0.0000000000000000       0.32687194085189591        0.00000000    
   0.0000000000000000       0.34706953228834792        0.00000000    
  -1.3244294319146118E-002  0.34621918004057622        0.00000000    
  -2.5194823892308049E-002  0.34486085432842745        0.00000000    
  -3.4389040599085756E-002  0.34083063283948428        0.00000000    
  -3.9736330756398479E-002  0.33440012643220296        0.00000000    
  -3.9640377417200647E-002  0.32200376790284435        0.00000000    
  -3.4102740806034877E-002  0.30276812614285031        0.00000000    
  -2.2314976312359729E-002  0.27209130761662226        0.00000000    
  -7.0844201623956422E-003  0.22910553644841325        0.00000000    
   1.0713940031323038E-002  0.17095300069207886        0.00000000    
   2.4661932374671795E-002   9.9715708824547680E-002   0.00000000    
   3.3227053827128830E-002   1.9337155745253059E-002   0.00000000    
   3.0523355492879958E-002  -6.3155992950366655E-002   0.00000000    
   1.8520157716030220E-002 -0.13729246068924941        0.00000000    
  -1.5372692107249216E-003 -0.19718263637281710        0.00000000    
  -2.4139137137594770E-002 -0.23727629646284890        0.00000000    
  -4.4982371105426487E-002 -0.25970365753684799        0.00000000    
  -6.0903886457306981E-002 -0.26691988332036615        0.00000000    
  -7.0564100796946902E-002 -0.26453720774211570        0.00000000    
  -7.3849457095759977E-002 -0.25650536549778030        0.00000000    
  -7.1943462686157977E-002 -0.24711954124294391        0.00000000    
  -6.4941511086085299E-002 -0.23811334206910389        0.00000000    
  -5.4038457263166736E-002 -0.23420860417315054        0.00000000    
  -4.2936582548693251E-002 -0.23359935232660672        0.00000000    
  -2.7458983024971878E-002 -0.23797854813072944        0.00000000    
  -2.0076016187960460E-003 -0.24009484182389973        0.00000000    
   2.5715807487896477E-002 -0.23297040973505204        0.00000000    
   4.3060674521852978E-002 -0.22759921197702465        0.00000000    
   5.5109542468498134E-002 -0.22779699537244155        0.00000000    
   6.6983540496684521E-002 -0.23175483545066392        0.00000000    
   7.4073679470958997E-002 -0.24087272827262152        0.00000000    
   7.6366228513764858E-002 -0.24998314981544847        0.00000000    
   7.3763514107496986E-002 -0.25817525949500769        0.00000000    
   6.4676667375140037E-002 -0.26144899443231984        0.00000000    
   4.8969150565126567E-002 -0.25559286770136191        0.00000000    
   2.7265133334918239E-002 -0.23450907655271702        0.00000000    
   3.8851777048758665E-003 -0.19426398339114295        0.00000000    
  -1.6645292215063473E-002 -0.13454802936013849        0.00000000    
  -2.9260467462251992E-002  -5.9295812972132003E-002   0.00000000    
  -3.0977753983622538E-002   2.3266169223697664E-002   0.00000000    
  -2.2709603186666642E-002  0.10326868012702863        0.00000000    
  -8.0211090245475968E-003  0.17414986107360489        0.00000000    
   9.4702512113093492E-003  0.23106498792145030        0.00000000    
   2.4681027727998694E-002  0.27356387682664202        0.00000000    
   3.6069142708916438E-002  0.30319937827589832        0.00000000    
   4.1301539576954586E-002  0.32208605531976481        0.00000000    
   4.0948134432159805E-002  0.33380823838627749        0.00000000    
   3.5271511693964266E-002  0.34018643278796351        0.00000000    
   2.5741850595522822E-002  0.34382794865734684        0.00000000    
   1.3513523483333264E-002  0.34529716021758849        0.00000000    
   0.0000000000000000       0.34592026779780888        0.00000000    
   0.0000000000000000       0.35599915009222910        0.00000000    
  -4.6777719062560076E-003  0.35521162846087145        0.00000000    
  -8.1571797427873426E-003  0.35129834331659632        0.00000000    
  -9.5069588710283582E-003  0.34493713968510870        0.00000000    
  -7.4622924933463114E-003  0.33359624336497501        0.00000000    
  -1.8502182995398949E-003  0.31709962343584341        0.00000000    
   8.1707944213053746E-003  0.29211362127660545        0.00000000    
   2.0991846678162333E-002  0.25813699573112303        0.00000000    
   3.6337411882579378E-002  0.21248372697832005        0.00000000    
   5.0090605069540925E-002  0.15602325678032983        0.00000000    
   6.1105471256088742E-002   8.9682594205276273E-002   0.00000000    
   6.4399438682466809E-002   1.7511181484656153E-002   0.00000000    
   6.0237464021361847E-002  -5.4464345695360648E-002   0.00000000    
   4.6991710920261165E-002 -0.12073515706711760        0.00000000    
   2.8150990986344510E-002 -0.17484179313498510        0.00000000    
   6.2257046369476833E-003 -0.21508998542498353        0.00000000    