 <VTKFile type="UnstructuredGrid" version="0.1" byte_order="BigEndian">
 <UnstructuredGrid>
 <Piece NumberOfPoints="        2601 " NumberOfCells="        2500 ">
 <PointData Scalars="scalars">
 <DataArray type="Float32" NumberOfComponents="3" Name="Velocity" Format="ascii">
   0.0000000000000000        0.0000000000000000        0.00000000    
  -7.0486787858310737E-002   0.0000000000000000        0.00000000    
 -0.14247002698764474        0.0000000000000000        0.00000000    
 -0.21793342221178449        0.0000000000000000        0.00000000    
 -0.29863891353111982        0.0000000000000000        0.00000000    
 -0.38796801627385602        0.0000000000000000        0.00000000    
 -0.48976089732408790        0.0000000000000000        0.00000000    
 -0.60967957784802762        0.0000000000000000        0.00000000    
 -0.76747000842314284        0.0000000000000000        0.00000000    
 -0.88311189666163348        0.0000000000000000        0.00000000    
 -0.91897412924086797        0.0000000000000000        0.00000000    
  -1.0649172338292123        0.0000000000000000        0.00000000    
  -1.0830860158415381        0.0000000000000000        0.00000000    
 -0.88528771400120854        0.0000000000000000        0.00000000    
 -0.92607503731997265        0.0000000000000000        0.00000000    
 -0.98513429457710477        0.0000000000000000        0.00000000    
 -0.84536623445684111        0.0000000000000000        0.00000000    
 -0.71790970218101224        0.0000000000000000        0.00000000    
 -0.61570712258999161        0.0000000000000000        0.00000000    
 -0.52290627272912260        0.0000000000000000        0.00000000    
 -0.43278660341290642        0.0000000000000000        0.00000000    
 -0.34195234988543433        0.0000000000000000        0.00000000    
 -0.23444585605541490        0.0000000000000000        0.00000000    
 -0.10946461005504118        0.0000000000000000        0.00000000    
  -2.5669288603777332E-002   0.0000000000000000        0.00000000    
   1.0995482851958436E-003   0.0000000000000000        0.00000000    
   3.3072803967854073E-002   0.0000000000000000        0.00000000    
   8.7342291401011823E-002   0.0000000000000000        0.00000000    
  0.15802528916353251        0.0000000000000000        0.00000000    
  0.24151200195058453        0.0000000000000000        0.00000000    
  0.36230871754847532        0.0000000000000000        0.00000000    
  0.50256014639650926        0.0000000000000000        0.00000000    
  0.59644463147082094        0.0000000000000000        0.00000000    
  0.61997258851599801        0.0000000000000000        0.00000000    
  0.69529963529395455        0.0000000000000000        0.00000000    
  0.81320609046039116        0.0000000000000000        0.00000000    
  0.91365868691689978        0.0000000000000000        0.00000000    
  0.99321885230736051        0.0000000000000000        0.00000000    
   1.0317519640342960        0.0000000000000000        0.00000000    
   1.0780300818484054        0.0000000000000000        0.00000000    
   1.0085399979803602        0.0000000000000000        0.00000000    
  0.89163188867909493        0.0000000000000000        0.00000000    
  0.76798319031211615        0.0000000000000000        0.00000000    
  0.61189694328095945        0.0000000000000000        0.00000000    
  0.49175891340911737        0.0000000000000000        0.00000000    
  0.38935979598787079        0.0000000000000000        0.00000000    
  0.29990688045700642        0.0000000000000000        0.00000000    
  0.21870872544949513        0.0000000000000000        0.00000000    
  0.14306656341880561        0.0000000000000000        0.00000000    
   7.0735935210250622E-002   0.0000000000000000        0.00000000    
   0.0000000000000000        0.0000000000000000        0.00000000    
   0.0000000000000000        6.8986398353816578E-002   0.00000000    
  -6.8232338435196369E-002   6.9732727938392455E-002   0.00000000    
 -0.13786859466958282        7.1886767424020656E-002   0.00000000    
 -0.21011604677421095        7.5824079903422076E-002   0.00000000    
 -0.28703331977964680        8.1798684419993800E-002   0.00000000    
 -0.37010364393469691        9.0600742476400639E-002   0.00000000    
 -0.46239261368468021       0.10348110832236185        0.00000000    
 -0.56633716591080463       0.12038212442621112        0.00000000    
 -0.67817764589890417       0.14924878613539080        0.00000000    
 -0.80404745561405699        9.2262911817118640E-002   0.00000000    
 -0.94369336046708574        8.3245225614758458E-002   0.00000000    
  -1.0291290443278545       0.14813356283596565        0.00000000    
 -0.95136232615837713      -0.20773149897205112        0.00000000    
 -0.87778925919632267       -6.3639869806559723E-002   0.00000000    
 -0.84245843268838028        6.9096366629721809E-002   0.00000000    
 -0.77873335223971640       -7.3762189804605888E-002   0.00000000    
 -0.72615838179790371      -0.11858084073359353        0.00000000    
 -0.64022093410856840       -9.4813139208558772E-002   0.00000000    
 -0.56040608764086619       -8.7204286827282790E-002   0.00000000    
 -0.47781107583381016       -8.8191574818351451E-002   0.00000000    
 -0.39358050294028551       -8.6158667369289024E-002   0.00000000    
 -0.31387283229480600       -8.4383256782145880E-002   0.00000000    
 -0.23500104563185253      -0.10199502368942016        0.00000000    
 -0.13449468325441710      -0.12349258466763934        0.00000000    
  -4.5172123077578313E-002  -4.9625296939529211E-002   0.00000000    
   1.7046297579795969E-003  -2.4020292768027581E-002   0.00000000    
   5.3696340365931843E-002  -5.9944673501994894E-002   0.00000000    
  0.10025092085530503       -4.0879394399901854E-002   0.00000000    
  0.14223828952321410       -7.1790972009429174E-002   0.00000000    
  0.23915454567505617      -0.10861199690738674        0.00000000    
  0.33806862718453023      -0.11109880017739454        0.00000000    
  0.43140944004747339      -0.12249344150993187        0.00000000    
  0.51767296197893586       -5.7654565471515491E-002   0.00000000    
  0.60156235313382622       -4.9762782708804680E-002   0.00000000    
  0.67481098384140914       -9.8812894750845370E-002   0.00000000    
  0.73467049647837956       -7.8953073026217388E-002   0.00000000    
  0.81117190044708121       -9.8000927371911989E-002   0.00000000    
  0.87539717834845632       -4.5784515892479311E-002   0.00000000    
  0.90760824184764533       -2.4959659309936759E-002   0.00000000    
  0.97186459285533811       -8.5574809488398268E-002   0.00000000    
  0.95951776976625791       0.16741171647472014        0.00000000    
  0.80771841991810911       0.10129574267467813        0.00000000    
  0.68186078285373874       0.14821059275520573        0.00000000    
  0.56876796412268860       0.12096847300527509        0.00000000    
  0.46407316192167164       0.10386435906601446        0.00000000    
  0.37167112930241902        9.0936790972976897E-002   0.00000000    
  0.28803217340378612        8.2155080455088389E-002   0.00000000    
  0.21098140974433693        7.6093838210483308E-002   0.00000000    
  0.13834175089676418        7.2187982666425982E-002   0.00000000    
   6.8508730588279887E-002   6.9975665849279597E-002   0.00000000    
   0.0000000000000000        6.9268999947928345E-002   0.00000000    
   0.0000000000000000       0.13390382665271858        0.00000000    
  -6.1990659022301615E-002  0.13503829709569065        0.00000000    
 -0.12459923785861221       0.13882603333611374        0.00000000    
 -0.18868410031585797       0.14521712855187821        0.00000000    
 -0.25435460716828873       0.15499341562805563        0.00000000    
 -0.32231114003393757       0.16843286828764220        0.00000000    
 -0.39043875672072670       0.18606556894646512        0.00000000    
 -0.45648808465418239       0.20779154396014002        0.00000000    
 -0.50033843324624416       0.21753019518013458        0.00000000    
 -0.53389899198991020       0.18341187122889741        0.00000000    
 -0.55148308135125690       0.14932626040629610        0.00000000    
 -0.50520664425925477       0.12121177484165296        0.00000000    
 -0.58759711311391549      -0.17618596027250547        0.00000000    
 -0.65330885718397658      -0.10304673137218451        0.00000000    
 -0.52817958135933019       -5.1956874115092776E-002   0.00000000    
 -0.44307066542889928      -0.10154294541486469        0.00000000    
 -0.43908615971018300      -0.14735956126106106        0.00000000    
 -0.44607405278828877      -0.14498397326878884        0.00000000    
 -0.39920769029980113      -0.16371466170075821        0.00000000    
 -0.33335947703169627      -0.16012442499734289        0.00000000    
 -0.28289184892615615      -0.14892401816766634        0.00000000    
 -0.23096244132955601      -0.15325498420394940        0.00000000    
 -0.18630335009805271      -0.15665417414120852        0.00000000    
 -0.17152672407407166      -0.18411642259580496        0.00000000    
 -0.12608408842329710      -0.12376665481918475        0.00000000    
  -3.2470788917585258E-002  -9.0368987209322599E-002   0.00000000    
   4.5969300735479710E-002 -0.12402777930220994        0.00000000    
  0.12237047163102967       -9.9752039964448577E-002   0.00000000    
  0.19614188589249051      -0.12867710935290869        0.00000000    
  0.23106484519951359      -0.18356507500125074        0.00000000    
  0.25242006261298250      -0.15641502098318488        0.00000000    
  0.26254491049917628      -0.18064288143019661        0.00000000    
  0.35021317538957458      -0.17343691234870681        0.00000000    
  0.46821138265127565      -0.13586803422365579        0.00000000    
  0.51308243623019156      -0.13082732749682777        0.00000000    
  0.53444934300791880      -0.12816505966840760        0.00000000    
  0.53970111006533539      -0.13054211172909358        0.00000000    
  0.58875036435427908      -0.12651786369760654        0.00000000    
  0.64905905386435359       -3.6746064487050929E-002   0.00000000    
  0.55896161802997424       -4.7947319453576963E-002   0.00000000    
  0.50388458443417239       0.19720808315030849        0.00000000    
  0.53885847338684500       0.18832483689086216        0.00000000    
  0.50536538911205342       0.22053221987590829        0.00000000    
  0.45831250030295795       0.20879255342312647        0.00000000    
  0.39219195215346148       0.18685562899706698        0.00000000    
  0.32334326426291199       0.16919624155025620        0.00000000    
  0.25533440464209012       0.15554344539582726        0.00000000    
  0.18926312897339317       0.14582751259651547        0.00000000    
  0.12505921842370807       0.13929787767629778        0.00000000    
   6.2179015881120688E-002  0.13557899368915055        0.00000000    
   0.0000000000000000       0.13435341857613628        0.00000000    
   0.0000000000000000       0.19104526050463369        0.00000000    
  -5.2625492618445936E-002  0.19251301488323427        0.00000000    
 -0.10519413358939723       0.19652853535453521        0.00000000    
 -0.15722832363885866       0.20363367903885279        0.00000000    
 -0.20831764432342123       0.21333669267673511        0.00000000    
 -0.25619386057734334       0.22592234035716716        0.00000000    
 -0.29855182126440294       0.23906167424935451        0.00000000    
 -0.32612735742387922       0.24842030274872118        0.00000000    
 -0.33943864251536893       0.23406307007341323        0.00000000    
 -0.34244335883970833       0.20344427140175639        0.00000000    
 -0.32025932558622761       0.12469391633969394        0.00000000    
 -0.27216431442438588        5.1472670661594187E-002   0.00000000    
 -0.23160400992073310       -6.4616691712521920E-002   0.00000000    
 -0.23151192454856021      -0.14899634121371763        0.00000000    
 -0.22306460256682528      -0.13958386205466947        0.00000000    
 -0.18204286889702431      -0.14004660705304664        0.00000000    
 -0.14884210177078247      -0.14604117244381909        0.00000000    
 -0.12854866425690048      -0.15960790649905116        0.00000000    
 -0.12232624796573610      -0.20217950722679756        0.00000000    
 -0.11762865177822235      -0.19220538890504144        0.00000000    
 -0.10078333925661578      -0.18415599486467213        0.00000000    
  -8.6331665934380020E-002 -0.18440408840468384        0.00000000    
  -6.8186967192989431E-002 -0.18830885989172119        0.00000000    
  -4.8737591928795995E-002 -0.18668773811337086        0.00000000    
  -3.5230536538297150E-002 -0.18014503032102860        0.00000000    
   5.0694106914783634E-004 -0.16334138880773713        0.00000000    
   2.8222864021240027E-002 -0.15721139029467535        0.00000000    
   4.0739033861467579E-002 -0.15548576969411079        0.00000000    
   7.1399024013060391E-002 -0.17737478402311943        0.00000000    
   9.0910976231138557E-002 -0.18930231183267801        0.00000000    
   9.8578464925408726E-002 -0.17970049023738699        0.00000000    
  0.12258760741805649      -0.19149140253087163        0.00000000    
  0.12316353417699058      -0.25083258287405680        0.00000000    
  0.12310577972118768      -0.17641281647871215        0.00000000    
  0.15272555283561409      -0.16477337190965544        0.00000000    
  0.18769210513015222      -0.15055247430141894        0.00000000    
  0.22652812907228675      -0.15224248806796312        0.00000000    
  0.23252177958802608      -0.15986039213664832        0.00000000    
  0.23413682160018964       -6.5327267541086809E-002   0.00000000    
  0.27108246505758576        3.3785676003951944E-002   0.00000000    
  0.31667811486948116       0.12495647151360166        0.00000000    
  0.33831791498371822       0.20396275945892431        0.00000000    
  0.33890715766785040       0.23779813889666684        0.00000000    
  0.32763086966640609       0.24985581121118058        0.00000000    
  0.29918457043086399       0.24035921859256082        0.00000000    
  0.25699681465963847       0.22672909561505974        0.00000000    
  0.20877510161691679       0.21424116399317888        0.00000000    
  0.15768285917824967       0.20429331210515708        0.00000000    
  0.10542939466802215       0.19728945322623803        0.00000000    
   5.2775386022499059E-002  0.19312162932599944        0.00000000    
   0.0000000000000000       0.19176518484159780        0.00000000    
   0.0000000000000000       0.23837836687912783        0.00000000    
  -4.1600250467729777E-002  0.23940565159364324        0.00000000    
  -8.2343425380669660E-002  0.24294771452673850        0.00000000    
 -0.12129977514342176       0.24820503967757032        0.00000000    
 -0.15668935471557974       0.25524423229342658        0.00000000    
 -0.18651335314188960       0.26171501541936276        0.00000000    
 -0.20656347783042495       0.26567708456137601        0.00000000    
 -0.21455048383822442       0.25736743460252498        0.00000000    
 -0.21118915395687840       0.23506589342820236        0.00000000    
 -0.19007148438452487       0.18432849479748106        0.00000000    
 -0.17162088839804618       0.10317506370212461        0.00000000    
 -0.15630002350882025        9.5756472467948932E-003   0.00000000    
 -0.13701728137398178       -8.2562714936377471E-002   0.00000000    
 -0.12900564697982844      -0.13915403775058313        0.00000000    
 -0.12515370186646996      -0.16172543261080330        0.00000000    
 -0.11937233882614476      -0.16470813320438218        0.00000000    
 -0.11066862815420633      -0.16328412408982099        0.00000000    
  -9.7926248459462212E-002 -0.17540077206096510        0.00000000    
  -9.1059018950791076E-002 -0.19947628746387616        0.00000000    
  -8.8861871501570780E-002 -0.20180335230185986        0.00000000    
  -8.2824024712465319E-002 -0.19744119077795771        0.00000000    
  -7.3416293982791703E-002 -0.19497829654234652        0.00000000    
  -6.5216325518769075E-002 -0.20407931895908710        0.00000000    
  -5.2521125490047817E-002 -0.20306185433799853        0.00000000    
  -2.8774851164318299E-002 -0.20102424381247780        0.00000000    
  -5.5929728719761925E-003 -0.20138153121530727        0.00000000    
   2.0541201491890038E-002 -0.17302134520277293        0.00000000    
   4.9621281854049508E-002 -0.18127206498825266        0.00000000    
   6.6459507230196169E-002 -0.19908670425594396        0.00000000    
   7.4411484738738695E-002 -0.19505432132569184        0.00000000    
   8.5723100520512713E-002 -0.19292758521965592        0.00000000    
   9.4227948874311476E-002 -0.21077829839467779        0.00000000    
   9.1106281080102144E-002 -0.22899994596761172        0.00000000    
   9.4135562570319686E-002 -0.20121698041801084        0.00000000    
  0.10735272445673716      -0.18280614297019337        0.00000000    
  0.11665510051786855      -0.17678863159541020        0.00000000    
  0.12327215580273659      -0.17145940999890227        0.00000000    
  0.12527569995525192      -0.14864066486985558        0.00000000    
  0.13330890193989325       -8.6195238801253529E-002   0.00000000    
  0.15032897729328096        6.8792845369830340E-004   0.00000000    
  0.16437553098551780        9.8412015558283786E-002   0.00000000    
  0.18799732710547323       0.18524561917842020        0.00000000    
  0.20893489487833386       0.23498846871864268        0.00000000    
  0.21365439070178008       0.25922227356568633        0.00000000    
  0.20655822797575574       0.26653521819813403        0.00000000    
  0.18646544317833172       0.26283363657675246        0.00000000    
  0.15683590294398858       0.25598787630717373        0.00000000    
  0.12136272651880295       0.24911201865369154        0.00000000    
   8.2445452302169861E-002  0.24364148540324665        0.00000000    
   4.1632108764601605E-002  0.24023694933078774        0.00000000    
   0.0000000000000000       0.23905735962261826        0.00000000    
   0.0000000000000000       0.27437669007068233        0.00000000    
  -3.0168029140523203E-002  0.27517560800909147        0.00000000    
  -5.9089871437218951E-002  0.27684277531967133        0.00000000    
  -8.5285734107103800E-002  0.27946219131600908        0.00000000    
 -0.10705351207595486       0.28114443819471774        0.00000000    
 -0.12215615765822976       0.28074145352535335        0.00000000    
 -0.12843174658351866       0.27297636006788395        0.00000000    
 -0.12566083056683100       0.25528424908574848        0.00000000    
 -0.11136678162702861       0.21949370012248179        0.00000000    
  -9.4810308205131533E-002  0.16222654510745727        0.00000000    
  -7.6257147220932409E-002   8.8273256420197399E-002   0.00000000    
  -6.4781161347923874E-002  -2.3193962347700433E-003   0.00000000    
  -7.1569713794529338E-002  -8.3161861144227620E-002   0.00000000    
  -8.3274009380119127E-002 -0.13486223035183728        0.00000000    
  -9.2434624429048914E-002 -0.16070857007426417        0.00000000    
  -9.4943571049583411E-002 -0.16899741216089925        0.00000000    
  -8.8660541323384259E-002 -0.17398158553152474        0.00000000    
  -8.0292395643803680E-002 -0.18581383599364218        0.00000000    
  -7.7077274789726438E-002 -0.19914557389395215        0.00000000    
  -7.6381351322566224E-002 -0.20502713678819309        0.00000000    
  -7.2302286447889927E-002 -0.20433431795537302        0.00000000    
  -6.4276722476376558E-002 -0.20551846406610608        0.00000000    
  -5.6562815051142377E-002 -0.20945302732451132        0.00000000    
  -4.4447909376386312E-002 -0.22249825167599979        0.00000000    
  -2.2388827145052963E-002 -0.22739320303127591        0.00000000    
  -7.6700522680108957E-003 -0.21291322516577954        0.00000000    
   1.3358989859020801E-002 -0.20865286774307562        0.00000000    
   4.6274251102254915E-002 -0.20763588405314490        0.00000000    
   6.0582256856727960E-002 -0.20386911632161372        0.00000000    
   6.6544067639442608E-002 -0.20418569755120058        0.00000000    
   7.6603328867420606E-002 -0.20516708600386804        0.00000000    
   8.3992563420190999E-002 -0.21443288051701023        0.00000000    
   8.1877114746053470E-002 -0.22010824737698337        0.00000000    
   7.8330695955822871E-002 -0.20959154170861527        0.00000000    
   8.3491635922457466E-002 -0.19280968353268019        0.00000000    
   8.9768425991126333E-002 -0.18236425716280122        0.00000000    
   8.7938241540011716E-002 -0.17067065526540728        0.00000000    
   7.8876050215923921E-002 -0.14237077243208027        0.00000000    
   6.7334989062276210E-002  -8.8957272070487189E-002   0.00000000    
   6.1491554307822473E-002  -7.7266788771003575E-003   0.00000000    
   7.1976691298211506E-002   8.2294932205332239E-002   0.00000000    
   8.9561718151517061E-002  0.16015587955677915        0.00000000    
  0.10906954827326076       0.21963281044429697        0.00000000    
  0.12368806057752528       0.25523992371093240        0.00000000    
  0.12735258464725402       0.27394920670782980        0.00000000    
  0.12155394093394298       0.28131107657643584        0.00000000    
  0.10665725384810998       0.28203666362636387        0.00000000    
   8.5082077534084269E-002  0.28011158407240899        0.00000000    
   5.8955146133077917E-002  0.27768612560089517        0.00000000    
   3.0119466071698353E-002  0.27584133273081385        0.00000000    
   0.0000000000000000       0.27520455105762837        0.00000000    
   0.0000000000000000       0.29965252719899593        0.00000000    
  -1.9454618041592976E-002  0.29952241806167162        0.00000000    
  -3.7520942598630924E-002  0.29948413211959818        0.00000000    
  -5.2694302732696707E-002  0.29819005731880188        0.00000000    
  -6.3502298386866635E-002  0.29499234581370093        0.00000000    
  -6.8247366820777644E-002  0.28674125992130689        0.00000000    
  -6.6518049463487702E-002  0.27152282523865084        0.00000000    
  -5.6989425566043361E-002  0.24443824399959144        0.00000000    
  -4.3776622936096000E-002  0.20283285363757381        0.00000000    
  -2.7680106466188147E-002  0.14623440169934615        0.00000000    
  -1.6235265025013004E-002   7.4267397401709886E-002   0.00000000    
  -1.4954031200069624E-002  -1.0707569153315102E-003   0.00000000    
  -2.2850588260915766E-002  -6.9725390957078914E-002   0.00000000    
  -3.8484878876226911E-002 -0.12096011433880763        0.00000000    
  -5.2675436624420931E-002 -0.15125951329062748        0.00000000    
  -6.0538423545094006E-002 -0.16807453540364117        0.00000000    
  -6.2382712279747433E-002 -0.17934320328056158        0.00000000    
  -6.1328590837786440E-002 -0.18987448536629908        0.00000000    
  -6.0055275399567232E-002 -0.19957336081372587        0.00000000    
  -5.9000921355043423E-002 -0.20634962738017801        0.00000000    
  -5.6027139250942611E-002 -0.21006467434224882        0.00000000    
  -5.0523539431241202E-002 -0.21331727147046928        0.00000000    
  -4.0982369671629139E-002 -0.21890929710503945        0.00000000    
  -3.1357062643800920E-002 -0.23478219459800517        0.00000000    
  -2.5354574528243332E-002 -0.24317083045627144        0.00000000    
  -5.3517128988929000E-003 -0.23185723424719115        0.00000000    
   1.8441769164925612E-002 -0.23453138285253688        0.00000000    
   3.0329628351937265E-002 -0.22656048937400333        0.00000000    
   4.4070828550070551E-002 -0.21299371695331623        0.00000000    
   5.5299168401876514E-002 -0.21225124755405192        0.00000000    
   6.1895926880002408E-002 -0.21375755570714494        0.00000000    
   6.4976067552960870E-002 -0.21631178603954263        0.00000000    
   6.4047490268743193E-002 -0.21518531589616655        0.00000000    
   6.1574369043318804E-002 -0.20849493317390555        0.00000000    
   5.8962058064369223E-002 -0.19645492105521919        0.00000000    
   5.5652907830221976E-002 -0.18168665947498680        0.00000000    
   4.7628463906767796E-002 -0.16149362457896502        0.00000000    
   3.3906267367396783E-002 -0.12876341525546622        0.00000000    
   1.8941394832678943E-002  -7.6058695559437575E-002   0.00000000    
   1.1075252792489620E-002  -6.9156785942854253E-003   0.00000000    
   1.2143870273859068E-002   6.9930177449667397E-002   0.00000000    
   2.4107344980577684E-002  0.14297213275129023        0.00000000    
   4.0101638474095445E-002  0.20131443363327783        0.00000000    
   5.4820139084759613E-002  0.24422128760576700        0.00000000    
   6.4727766854165675E-002  0.27139569097257393        0.00000000    
   6.7113196427814298E-002  0.28727780645009504        0.00000000    
   6.2708714134786306E-002  0.29537110313029319        0.00000000    
   5.2180321460671059E-002  0.29888071355537749        0.00000000    
   3.7210281509297664E-002  0.30001396746905734        0.00000000    
   1.9306473013074785E-002  0.30025297941902029        0.00000000    
   0.0000000000000000       0.30021884345295979        0.00000000    
   0.0000000000000000       0.31464504443526425        0.00000000    
  -1.0137825390740391E-002  0.31412234425654428        0.00000000    
  -1.8957949175312617E-002  0.31177065426514317        0.00000000    
  -2.5285555452290026E-002  0.30740450158310090        0.00000000    
  -2.7770178069843172E-002  0.29907051981992844        0.00000000    
  -2.5936972508116586E-002  0.28557494878605227        0.00000000    
  -1.8841061212420147E-002  0.26386390771972434        0.00000000    
  -8.3572145801683057E-003  0.23208469098760295        0.00000000    
   4.9770110422894817E-003  0.18863937839599451        0.00000000    
   1.6408658026858390E-002  0.13289971348528004        0.00000000    
   2.2956779575293497E-002   6.9609122625094125E-002   0.00000000    
   2.1883031765770465E-002   3.3800318448860777E-003   0.00000000    
   1.2148594576906275E-002  -5.6545185468448757E-002   0.00000000    
  -1.8762900052644495E-003 -0.10448114463063594        0.00000000    
  -1.6673686309625648E-002 -0.13875052894680320        0.00000000    
  -2.8025720858917025E-002 -0.16136849827792202        0.00000000    
  -3.5041512593525816E-002 -0.17718915993734069        0.00000000    
  -3.8674549307340531E-002 -0.18944961343793376        0.00000000    
  -4.0438618681373072E-002 -0.19950747880647690        0.00000000    
  -4.0529879013838518E-002 -0.20737860309966932        0.00000000    
  -3.8793821056764322E-002 -0.21374553868406046        0.00000000    
  -3.4213363094542371E-002 -0.21972046491071465        0.00000000    
  -2.7319654967283700E-002 -0.22894098155173975        0.00000000    
  -2.1838456390109267E-002 -0.23985701575641841        0.00000000    
  -1.4796722136935279E-002 -0.25114023166665161        0.00000000    
  -1.5853484733072910E-003 -0.25710206832994248        0.00000000    
   1.2330646553177463E-002 -0.24699602586021063        0.00000000    
   2.1807499275567035E-002 -0.23546055827580126        0.00000000    
   2.9845226775449159E-002 -0.22587257574962952        0.00000000    
   3.8961824712426707E-002 -0.21971732654659809        0.00000000    
   4.4329794795787983E-002 -0.21825620527621162        0.00000000    
   4.5720979976213556E-002 -0.21628446232398521        0.00000000    
   4.3898106214533147E-002 -0.21246118856600196        0.00000000    
   3.9416514329780404E-002 -0.20426434739408672        0.00000000    
   3.3217649742317501E-002 -0.19187433126887349        0.00000000    
   2.4338309768402389E-002 -0.17407875905358763        0.00000000    
   1.2349178604248280E-002 -0.14908794991313815        0.00000000    
  -2.4104606285322247E-003 -0.11268725414969322        0.00000000    
  -1.6190554870137319E-002  -6.3389889889507500E-002   0.00000000    
  -2.5772744500877531E-002  -2.1361525941412753E-003   0.00000000    
  -2.6605393660547150E-002   6.4914683126919018E-002   0.00000000    
  -2.0190815054383911E-002  0.12960957376007423        0.00000000    
  -7.9899450782066894E-003  0.18648182915369416        0.00000000    
   5.5230093723815082E-003  0.23082243702291319        0.00000000    
   1.6916379074050216E-002  0.26349354408317066        0.00000000    
   2.4358019295000474E-002  0.28535288354368366        0.00000000    
   2.6709878085610570E-002  0.29934864953792473        0.00000000    
   2.4521193379980342E-002  0.30762024452627790        0.00000000    
   1.8498006741187588E-002  0.31226766308712511        0.00000000    
   9.9099729817807864E-003  0.31449112605537771        0.00000000    
   0.0000000000000000       0.31519714281025907        0.00000000    
   0.0000000000000000       0.32138014521501446        0.00000000    
  -2.4932042820872418E-003  0.32001827314846265        0.00000000    
  -3.9832393474162524E-003  0.31618488422196456        0.00000000    
  -3.3907372287027607E-003  0.30872537578338621        0.00000000    
  -1.9924717830568077E-004  0.29704277818563540        0.00000000    
   6.3668500750397525E-003  0.27920338760412361        0.00000000    
   1.5483601672398754E-002  0.25402280600743810        0.00000000    
   2.6953020349182774E-002  0.21997252738973061        0.00000000    
   3.7989886974707912E-002  0.17638044974476100        0.00000000    
   4.6901722592040465E-002  0.12481515953355680        0.00000000    
   5.0741346203859811E-002   6.7305931415551912E-002   0.00000000    
   4.8027388124682324E-002   9.4709289422091267E-003   0.00000000    
   3.9472714929687770E-002  -4.4346972182724903E-002   0.00000000    
   2.6487835288850185E-002  -8.9669593694062133E-002   0.00000000    
   1.2706903816407721E-002 -0.12498375210715976        0.00000000    
   2.2316431175587676E-004 -0.15129950106411347        0.00000000    