 <VTKFile type="UnstructuredGrid" version="0.1" byte_order="BigEndian">
 <UnstructuredGrid>
 <Piece NumberOfPoints="        2601 " NumberOfCells="        2500 ">
 <PointData Scalars="scalars">
 <DataArray type="Float32" NumberOfComponents="3" Name="Velocity" Format="ascii">
   0.0000000000000000        0.0000000000000000        0.00000000    
 -0.11242703323085244        0.0000000000000000        0.00000000    
 -0.22381652824022144        0.0000000000000000        0.00000000    
 -0.33313619290649155        0.0000000000000000        0.00000000    
 -0.43928202821971107        0.0000000000000000        0.00000000    
 -0.54116832595765629        0.0000000000000000        0.00000000    
 -0.63757199752522242        0.0000000000000000        0.00000000    
 -0.72731006664460096        0.0000000000000000        0.00000000    
 -0.80901101356242711        0.0000000000000000        0.00000000    
 -0.88138308822198119        0.0000000000000000        0.00000000    
 -0.94292258332010603        0.0000000000000000        0.00000000    
 -0.99227465540672233        0.0000000000000000        0.00000000    
  -1.0278958608499305        0.0000000000000000        0.00000000    
  -1.0484998190102306        0.0000000000000000        0.00000000    
  -1.0527026758681086        0.0000000000000000        0.00000000    
  -1.0395224202748248        0.0000000000000000        0.00000000    
  -1.0080471486501084        0.0000000000000000        0.00000000    
 -0.95792090441042033        0.0000000000000000        0.00000000    
 -0.88907280483870033        0.0000000000000000        0.00000000    
 -0.80209813508785088        0.0000000000000000        0.00000000    
 -0.69805542775631790        0.0000000000000000        0.00000000    
 -0.57868401285225801        0.0000000000000000        0.00000000    
 -0.44621452904646819        0.0000000000000000        0.00000000    
 -0.30347242723925100        0.0000000000000000        0.00000000    
 -0.15358120681129828        0.0000000000000000        0.00000000    
  -1.2264258432171941E-004   0.0000000000000000        0.00000000    
  0.15341156152266988        0.0000000000000000        0.00000000    
  0.30320783572973958        0.0000000000000000        0.00000000    
  0.44601142727288456        0.0000000000000000        0.00000000    
  0.57837431691920316        0.0000000000000000        0.00000000    
  0.69780561757003667        0.0000000000000000        0.00000000    
  0.80174417859629632        0.0000000000000000        0.00000000    
  0.88878584943409833        0.0000000000000000        0.00000000    
  0.95754315747155749        0.0000000000000000        0.00000000    
   1.0077435907663272        0.0000000000000000        0.00000000    
   1.0391458397251598        0.0000000000000000        0.00000000    
   1.0524025024567896        0.0000000000000000        0.00000000    
   1.0481446833417900        0.0000000000000000        0.00000000    
   1.0276144514622425        0.0000000000000000        0.00000000    
  0.99195529116144376        0.0000000000000000        0.00000000    
  0.94267146625235654        0.0000000000000000        0.00000000    
  0.88110967316680766        0.0000000000000000        0.00000000    
  0.80879926418250159        0.0000000000000000        0.00000000    
  0.72709013752452845        0.0000000000000000        0.00000000    
  0.63740683965794753        0.0000000000000000        0.00000000    
  0.54100744269243983        0.0000000000000000        0.00000000    
  0.43916890590096197        0.0000000000000000        0.00000000    
  0.33303818012274949        0.0000000000000000        0.00000000    
  0.22375906534003850        0.0000000000000000        0.00000000    
  0.11239411887184535        0.0000000000000000        0.00000000    
   0.0000000000000000        0.0000000000000000        0.00000000    
   0.0000000000000000       0.11263582820493989        0.00000000    
 -0.11233537020827006       0.11212657523390288        0.00000000    
 -0.22365305949014630       0.11058060905706185        0.00000000    
 -0.33289909040708271       0.10798508652586593        0.00000000    
 -0.43903045197450108       0.10429211035449061        0.00000000    
 -0.54089796814227831        9.9461703550954170E-002   0.00000000    
 -0.63737951574810203        9.3423515622153827E-002   0.00000000    
 -0.72718630149065977        8.6121339239505559E-002   0.00000000    
 -0.80908510716617232        7.7478413353550615E-002   0.00000000    
 -0.88163514312902946        6.7443697268584998E-002   0.00000000    
 -0.94350279316483310        5.5963447865060356E-002   0.00000000    
 -0.99314153623741297        4.3027367293861307E-002   0.00000000    
  -1.0291988528765792        2.8651154788229809E-002   0.00000000    
  -1.0501610608313132        1.2915011326531204E-002   0.00000000    
  -1.0548369933102866       -4.0362219899633678E-003   0.00000000    
  -1.0420028276878097       -2.1978199226069122E-002   0.00000000    
  -1.0109151993219259       -4.0584700764815351E-002   0.00000000    
 -0.96100051942932097       -5.9456223367747162E-002   0.00000000    
 -0.89231078132606134       -7.8081614307517866E-002   0.00000000    
 -0.80528969115884386       -9.5914145610817958E-002   0.00000000    
 -0.70107664375776380      -0.11234160912208012        0.00000000    
 -0.58133323554419980      -0.12677321399581215        0.00000000    
 -0.44837413966322437      -0.13865536569123818        0.00000000    
 -0.30496271572379718      -0.14749816005567407        0.00000000    
 -0.15438932693736698      -0.15296644915899504        0.00000000    
  -8.4923626152106998E-005 -0.15479651837946368        0.00000000    
  0.15413413965189215      -0.15295674900585751        0.00000000    
  0.30477407916234378      -0.14747946471193132        0.00000000    
  0.44808267717413208      -0.13863272484328734        0.00000000    
  0.58110075755864632      -0.12674824518781491        0.00000000    
  0.70073680663470239      -0.11231910453935930        0.00000000    
  0.80501371008902833       -9.5896359941495202E-002   0.00000000    
  0.89193669879326531       -7.8068299600828367E-002   0.00000000    
  0.96069899528348002       -5.9451304927114874E-002   0.00000000    
   1.0105321175760424       -4.0582250660501272E-002   0.00000000    
   1.0416970175762537       -2.1984898298814552E-002   0.00000000    
   1.0544677385163848       -4.0424853732304025E-003   0.00000000    
   1.0498680620277185        1.2899980976623274E-002   0.00000000    
   1.0288598325486480        2.8638480381710830E-002   0.00000000    
  0.99287397689555212        4.3006535571909497E-002   0.00000000    
  0.94320546411025541        5.5945802122191163E-002   0.00000000    
  0.88140285479142499        6.7418600281913266E-002   0.00000000    
  0.80883791500036417        7.7456748493170802E-002   0.00000000    
  0.72699725877154786        8.6093034393342219E-002   0.00000000    
  0.63718882711882785        9.3398695125676390E-002   0.00000000    
  0.54075844341772683        9.9431085540654260E-002   0.00000000    
  0.43890086502414766       0.10426502964412102        0.00000000    
  0.33281358370198666       0.10795297745597461        0.00000000    
  0.22358754198903538       0.11055217903940652        0.00000000    
  0.11230657052454322       0.11209373889299920        0.00000000    
   0.0000000000000000       0.11260695050310894        0.00000000    
   0.0000000000000000       0.22508846782121822        0.00000000    
 -0.11205972960673148       0.22406903543233742        0.00000000    
 -0.22311966511374556       0.22101577364723149        0.00000000    
 -0.33218507113754003       0.21586135887613625        0.00000000    
 -0.43818867512971144       0.20855080356352598        0.00000000    
 -0.54008037249977547       0.19896222387946660        0.00000000    
 -0.63666989404001639       0.18699406443942460        0.00000000    
 -0.72680346696615794       0.17249114909063801        0.00000000    
 -0.80913156146597598       0.15533550367747059        0.00000000    
 -0.88237633176503272       0.13538141320628069        0.00000000    
 -0.94503245739271391       0.11254950759057387        0.00000000    
 -0.99573008492125636        8.6777678169170272E-002   0.00000000    
  -1.0328829795076775        5.8111055138235723E-002   0.00000000    
  -1.0551462126605593        2.6680552083838547E-002   0.00000000    
  -1.0610379834640999       -7.2340594650261930E-003   0.00000000    
  -1.0494692023932799       -4.3183308444607951E-002   0.00000000    
  -1.0193835478863777       -8.0552874419328818E-002   0.00000000    
 -0.97029026286628339      -0.11849601462623897        0.00000000    
 -0.90197814320036485      -0.15604368081846740        0.00000000    
 -0.81493292892093971      -0.19201838354681927        0.00000000    
 -0.71015627840417417      -0.22522706910418488        0.00000000    
 -0.58936217676696978      -0.25442526386478637        0.00000000    
 -0.45485580292892241      -0.27846878554154503        0.00000000    
 -0.30954207062526728      -0.29640989644876092        0.00000000    
 -0.15672043872523828      -0.30744973345262572        0.00000000    
  -1.3203596031550864E-004 -0.31120604016228270        0.00000000    
  0.15652993878215238      -0.30742826524380801        0.00000000    
  0.30925570723231249      -0.29637365643490426        0.00000000    
  0.45462870772894404      -0.27842013162899260        0.00000000    
  0.58902671186461486      -0.25437692292260689        0.00000000    
  0.70988252262432872      -0.22518228664059728        0.00000000    
  0.81455529581805264      -0.19198285448861643        0.00000000    
  0.90167318409004049      -0.15602268203019470        0.00000000    
  0.96989659575851050      -0.11848263065674042        0.00000000    
   1.0190700678044178       -8.0557519269610856E-002   0.00000000    
   1.0490848438981699       -4.3189305783972676E-002   0.00000000    
   1.0607339301163530       -7.2578850466551463E-003   0.00000000    
   1.0547885943924193        2.6660392862345263E-002   0.00000000    
   1.0326008007543275        5.8074091612879207E-002   0.00000000    
  0.99541078373472647        8.6746797013137325E-002   0.00000000    
  0.94478179109161164       0.11250304610909972        0.00000000    
  0.88210395403369068       0.13534180267145862        0.00000000    
  0.80892062658298214       0.15528181334511637        0.00000000    
  0.72658480703215966       0.17244444532073891        0.00000000    
  0.63650555678022647       0.18693496610265201        0.00000000    
  0.53992061442502892       0.19891014061968260        0.00000000    
  0.43807619650400054       0.20848797087941676        0.00000000    
  0.33208781884676225       0.21580569519978721        0.00000000    
  0.22306255405614067       0.22095076779888101        0.00000000    
  0.11202708303867030       0.22401159261519712        0.00000000    
   0.0000000000000000       0.22502275034383659        0.00000000    
   0.0000000000000000       0.33713218478358664        0.00000000    
 -0.11155703183342207       0.33564207990982725        0.00000000    
 -0.22217122105836579       0.33111685390139983        0.00000000    
 -0.33086284499862822       0.32351730858573363        0.00000000    
 -0.43666237318357193       0.31269798603074012        0.00000000    
 -0.53849133512767233       0.29853570072612989        0.00000000    
 -0.63529456664583661       0.28081334065085894        0.00000000    
 -0.72584188514892189       0.25935276430814752        0.00000000    
 -0.80894806978590594       0.23390816759645175        0.00000000    
 -0.88320008176741005       0.20430553156758216        0.00000000    
 -0.94727083358472342       0.17035226667395129        0.00000000    
 -0.99957934319025543       0.13198105621959375        0.00000000    
  -1.0387075104977683        8.9188738981426458E-002   0.00000000    
  -1.0630076646798010        4.2166255575293944E-002   0.00000000    
  -1.0711249266077989       -8.7107302252674226E-003   0.00000000    
  -1.0615850664689963       -6.2815278894251897E-002   0.00000000    
  -1.0333899810574034      -0.11920164388850774        0.00000000    
 -0.98565056657266825      -0.17667994466214682        0.00000000    
 -0.91814668938973687      -0.23367574763174140        0.00000000    
 -0.83108717846873204      -0.28849104193422875        0.00000000    
 -0.72545245338023412      -0.33916578632237299        0.00000000    
 -0.60291280481119192      -0.38382029685309577        0.00000000    
 -0.46583541859061728      -0.42065751261219370        0.00000000    
 -0.31726289783285661      -0.44810742243977569        0.00000000    
 -0.16073841325698804      -0.46509832393784767        0.00000000    
  -1.0581856164130819E-004 -0.47077844713757733        0.00000000    
  0.16044293505059859      -0.46506658662355971        0.00000000    
  0.31702771063558388      -0.44804587909054588        0.00000000    
  0.46549360656958894      -0.42058680540432475        0.00000000    
  0.60262914736819273      -0.38374379408180037        0.00000000    
  0.72505985853807420      -0.33910193741133360        0.00000000    
  0.83076784779615287      -0.28844396616993545        0.00000000    
  0.91773261607080892      -0.23364422689585104        0.00000000    
  0.98532252016293764      -0.17667440155194009        0.00000000    
   1.0329851890878323      -0.11920188934554120        0.00000000    
   1.0612677401258594       -6.2842262840084304E-002   0.00000000    
   1.0707475644982545       -8.7338385814453908E-003   0.00000000    
   1.0627116452645222        4.2117601354533740E-002   0.00000000    
   1.0383674036260848        8.9148918396899909E-002   0.00000000    
  0.99931228332253474       0.13191710755199468        0.00000000    
  0.94697526979973146       0.17029874173584464        0.00000000    
  0.88296942675168644       0.20422978715040266        0.00000000    
  0.80870351720238587       0.23384306586586939        0.00000000    
  0.72565466173390358       0.25926786781900862        0.00000000    
  0.63510646114184077       0.28073899444806960        0.00000000    
  0.53835338345284423       0.29844413231817263        0.00000000    
  0.43653478364303966       0.31261699691145473        0.00000000    
  0.33077839558416977       0.32342143488356823        0.00000000    
  0.22210678510868073       0.33103190338090921        0.00000000    
  0.11152860440893464       0.33554410875009133        0.00000000    
   0.0000000000000000       0.33704592165624975        0.00000000    
   0.0000000000000000       0.44854021998796367        0.00000000    
 -0.11078470764724704       0.44657578418581323        0.00000000    
 -0.22067980343722959       0.44069243464003982        0.00000000    
 -0.32880068054903583       0.43075422889885090        0.00000000    
 -0.43418863514647532       0.41664854849971128        0.00000000    
 -0.53590030266230504       0.39812576771677105        0.00000000    
 -0.63284613287560543       0.37497233539139385        0.00000000    
 -0.72396462959068997       0.34685958478545909        0.00000000    
 -0.80798130987476868       0.31352421203992048        0.00000000    
 -0.88367150796974336       0.27463169720026326        0.00000000    
 -0.94954296418976347       0.22996830907832735        0.00000000    
  -1.0041989167265268       0.17932947595717807        0.00000000    
  -1.0459481187342901       0.12271768855884929        0.00000000    
  -1.0732887260013662        6.0278067446639237E-002   0.00000000    
  -1.0844581595193949       -7.5358466508482196E-003   0.00000000    
  -1.0780497462871970       -7.9938435840017849E-002   0.00000000    
  -1.0525489135697472      -0.15577440507203966        0.00000000    
  -1.0070302222979077      -0.23336528923554187        0.00000000    
 -0.94079019119688523      -0.31073431134254992        0.00000000    
 -0.85392947867417390      -0.38535270166749241        0.00000000    
 -0.74721616160172877      -0.45465216875029546        0.00000000    
 -0.62225179535103337      -0.51583792924527283        0.00000000    
 -0.48158075076311391      -0.56638831102875020        0.00000000    
 -0.32835256073929175      -0.60417733480516622        0.00000000    
 -0.16646514806462145      -0.62744030882323409        0.00000000    
  -1.6184768348742227E-004 -0.63537235732903719        0.00000000    
  0.16620591252801731      -0.62738919025608142        0.00000000    
  0.32799442348551633      -0.60409656200087358        0.00000000    
  0.48127348747275239      -0.56628108241547703        0.00000000    
  0.62183085382572012      -0.51574242422258343        0.00000000    
  0.74686625204189871      -0.45456941665685247        0.00000000    
  0.85347890047224872      -0.38529712461320376        0.00000000    
  0.94043441252815030      -0.31071134878338746        0.00000000    
   1.0065937702672219      -0.23335654149595739        0.00000000    
   1.0522121967389595      -0.15580084479840980        0.00000000    
   1.0776483448088168       -7.9962006495447213E-002   0.00000000    
   1.0841476146047793       -7.5931890947008697E-003   0.00000000    
   1.0729278732907255        6.0232612415234178E-002   0.00000000    
   1.0456664116881362       0.12263961057695787        0.00000000    
   1.0038819929919214       0.17926595437136578        0.00000000    
  0.94929496012762082       0.22987394130330224        0.00000000    
  0.88340334352427796       0.27455204723400328        0.00000000    
  0.80777346900404412       0.31341658985152226        0.00000000    
  0.72375038328373964       0.34676628502181828        0.00000000    
  0.63268462718582863       0.37485453393494622        0.00000000    
  0.53574427831094207       0.39802201939485998        0.00000000    
  0.43407830278510162       0.41652368517011895        0.00000000    
  0.32870590274573197       0.43064353472283118        0.00000000    
  0.22062384884449196       0.44056346791807671        0.00000000    
  0.11075292575709803       0.44646164799975496        0.00000000    
   0.0000000000000000       0.44840991257231527        0.00000000    
   0.0000000000000000       0.55896151470277533        0.00000000    
 -0.10966108804327361       0.55660028516121085        0.00000000    
 -0.21852257317593501       0.54942451458696762        0.00000000    
 -0.32574759370290013       0.53736804659039039        0.00000000    
 -0.43050993181242636       0.52018502351481144        0.00000000    
 -0.53187173321709535       0.49766276162187312        0.00000000    
 -0.62891498202150309       0.46942442050366684        0.00000000    
 -0.72053622091015468       0.43514723527663385        0.00000000    
 -0.80566106269790883       0.39437808362023807        0.00000000    
 -0.88295785593292120       0.34676481694965161        0.00000000    
 -0.95114227127524309       0.29189106089093225        0.00000000    
  -1.0086083886459980       0.22952879405181936        0.00000000    
  -1.0538477038500518       0.15950688767566920        0.00000000    
  -1.0849919281871843        8.1973699933765173E-002   0.00000000    
  -1.1003912310656696       -2.6627427418235866E-003   0.00000000    
  -1.0980749845790865       -9.3536199468078091E-002   0.00000000    
  -1.0765195141867312      -0.18923294455415510        0.00000000    
  -1.0341053643569011      -0.28783959085534222        0.00000000    
 -0.96997189846410348      -0.38663350671694741        0.00000000    
 -0.88368359062724899      -0.48260252665289821        0.00000000    
 -0.77578384796068245      -0.57201540350428504        0.00000000    
 -0.64788766006852350      -0.65133524863436909        0.00000000    
 -0.50243527906710284      -0.71701441722938353        0.00000000    
 -0.34314787946294950      -0.76606681823273559        0.00000000    
 -0.17411352193921617      -0.79647259559446215        0.00000000    
  -1.5364275122713055E-004 -0.80660325012715839        0.00000000    
  0.17372839737090354      -0.79640809779198884        0.00000000    
  0.34280283042742687      -0.76594059847921525        0.00000000    
  0.50197416475924772      -0.71688744425658291        0.00000000    
  0.64748635241905594      -0.65120561639448593        0.00000000    
  0.77527406915684949      -0.57192933943930757        0.00000000    
  0.88327845031920305      -0.48255423142368886        0.00000000    
  0.96948417820327726      -0.38661548191325712        0.00000000    
   1.0337375242227973      -0.28786511212492372        0.00000000    
   1.0760853773299464      -0.18925855374870149        0.00000000    
   1.0977474565875152       -9.3602524872834547E-002   0.00000000    
   1.1000084618493315       -2.7129457754566334E-003   0.00000000    
   1.0846973096511272        8.1883262607985938E-002   0.00000000    
   1.0535112128335988       0.15943651880396703        0.00000000    
   1.0083458181283840       0.22941885954551486        0.00000000    
  0.95085306597449859       0.29180082114699041        0.00000000    
  0.88273211744077673       0.34663773252710040        0.00000000    
  0.80542329166509619       0.39426960485399815        0.00000000    
  0.72035353738929964       0.43500611001515577        0.00000000    
  0.62873292802554115       0.46930107440294383        0.00000000    
  0.53173746802507371       0.49751128780192139        0.00000000    
  0.43038685376284019       0.52005100655080327        0.00000000    
  0.32566555722176554       0.53720990992229045        0.00000000    
  0.21846054010012647       0.54928416374117528        0.00000000    
  0.10963350074938298       0.55643891461448547        0.00000000    
   0.0000000000000000       0.55881907246375095        0.00000000    
   0.0000000000000000       0.66805057527167733        0.00000000    
 -0.10811079790030607       0.66528311053556466        0.00000000    
 -0.21550396058884155       0.65699633703349603        0.00000000    
 -0.32146834359992171       0.64298562768157463        0.00000000    
 -0.42521856167852767       0.62307999861145358        0.00000000    
 -0.52598642543791974       0.59689745168895036        0.00000000    
 -0.62285406048078906       0.56410061428356995        0.00000000    
 -0.71492576540385910       0.52416398530810138        0.00000000    
 -0.80107766775178779       0.47663807772416655        0.00000000    
 -0.88020853429289614       0.42093248262148353        0.00000000    
 -0.95090528131401764       0.35660455758226672        0.00000000    
  -1.0117870730827296       0.28316320649958227        0.00000000    
  -1.0610743618752581       0.20039907922422209        0.00000000    
  -1.0970767838158093       0.10822815466251698        0.00000000    
  -1.1176380863120423        7.0434079038864481E-003   0.00000000    
  -1.1208622200042042      -0.10233446290859730        0.00000000    
  -1.1044245166581443      -0.21842785485229610        0.00000000    
  -1.0665978928669477      -0.33888545417862403        0.00000000    
  -1.0055900655331567      -0.46072893662048897        0.00000000    
 -0.92063605946444727      -0.57974941065532515        0.00000000    
 -0.81180096305145777      -0.69160335858163857        0.00000000    
 -0.68032301528719019      -0.79112142921385498        0.00000000    
 -0.52918922482305220      -0.87381440811567446        0.00000000    
 -0.36198757156242506      -0.93575588021164358        0.00000000    
 -0.18394456319222224      -0.97386089950970622        0.00000000    
  -2.1708116031999674E-004 -0.98690230743222684        0.00000000    
  0.18354454456717276      -0.97375270633675759        0.00000000    
  0.36148122548758382      -0.93560710391180080        0.00000000    
  0.52871324984203349      -0.87362429751048509        0.00000000    
  0.67972602948919758      -0.79099373044797228        0.00000000    
  0.81131271555530182      -0.69151562818994239        0.00000000    
  0.92006433864780546      -0.57972394692831786        0.00000000    
   1.0051703057664614      -0.46075746141158985        0.00000000    
   1.0661155453329583      -0.33892171821300648        0.00000000    
   1.1040754888473916      -0.21850974428244310        0.00000000    
   1.1204553488186066      -0.10239327356826568        0.00000000    
   1.1173330647062287        6.9390817702820089E-003   0.00000000    
   1.0967231121994137       0.10815233976688701        0.00000000    
   1.0608010398371095       0.20027561082463369        0.00000000    
   1.0114800609272379       0.28306614113956441        0.00000000    
  0.95066511766514405       0.35646123496864374        0.00000000    
  0.87995040972102745       0.42081297518292471        0.00000000    
  0.80087675908687139       0.47647683860772444        0.00000000    
  0.71472063787553874       0.52402475174820617        0.00000000    
  0.62269834970310278       0.56392533020579227        0.00000000    
  0.52583769905165512       0.59674314265064454        0.00000000    
  0.42511245488459365       0.62289501013107129        0.00000000    
  0.32137827763323845       0.64282138013411771        0.00000000    
  0.21545024104077917       0.65680574724313467        0.00000000    
  0.10808064320709318       0.66511396829662783        0.00000000    
   0.0000000000000000       0.66785816273776499        0.00000000    
   0.0000000000000000       0.77526620448603856        0.00000000    
 -0.10602635289339665       0.77220463211457890        0.00000000    
 -0.21144927435487440       0.76289089960415768        0.00000000    
 -0.31562884832826998       0.74723502209507209        0.00000000    
 -0.41794099834599202       0.72489297229393634        0.00000000    
 -0.51765118125573684       0.69556252467529900        0.00000000    
 -0.61404917738826670       0.65870117247226212        0.00000000    
 -0.70623641965957618       0.61382237431349373        0.00000000    
 -0.79333398615416417       0.56022915756092195        0.00000000    
 -0.87418732558598677       0.49732560875737514        0.00000000    
 -0.94764484585875530       0.42436569873988422        0.00000000    
  -1.0121736691838124       0.34081268043546309        0.00000000    
  -1.0662378632653056       0.24610108816197088        0.00000000    
  -1.1077897438459248       0.14008044824567881        0.00000000    
  -1.1348511891997537        2.2813862170382913E-002   0.00000000    
  -1.1448033324399802      -0.10492864024295100        0.00000000    
  -1.1353665514241489      -0.24170816188024771        0.00000000    
  -1.1036359428715732      -0.38516237949467713        0.00000000    
  -1.0475736477302111      -0.53152213378001512        0.00000000    
 -0.96517377452222741      -0.67631009277271148        0.00000000    
 -0.85588624367247668      -0.81316530372742712        0.00000000    
 -0.72084157336566868      -0.93608210213935261        0.00000000    
 -0.56243780024506940       -1.0383912987753579        0.00000000    
 -0.38586857183238810       -1.1149498712254728        0.00000000    
 -0.19618758554443996       -1.1623909031544797        0.00000000    
  -2.4564101204757420E-004  -1.1780417303519499        0.00000000    
  0.19563954363174421       -1.1622600937887706        0.00000000    
  0.38529706682273007       -1.1146939205713882        0.00000000    
  0.56172837926398678       -1.0382008176470501        0.00000000    
  0.72021964615343603      -0.93592125684823158        0.00000000    
  0.85517597034362136      -0.81313111204641053        0.00000000    
  0.96466453920939910      -0.67634865503034913        0.00000000    
   1.0470151879349219      -0.53158936915416422        0.00000000    
   1.1032582214798436      -0.38527808358208071        0.00000000    
   1.1349331299491232      -0.24178823089749774        0.00000000    
   1.1444930276124823      -0.10505454458802745        0.00000000    
   1.1344848716058478        2.2730792908651522E-002   0.00000000    
   1.1075118616809101       0.13994359106001258        0.00000000    
   1.0659178181674620       0.24600047540686779        0.00000000    
   1.0119239497395893       0.34065612389480426        0.00000000    
  0.94737045487719462       0.42423969033751063        0.00000000    
  0.87397197129338966       0.49714771134169694        0.00000000    
  0.79310942015182206       0.56007830422430505        0.00000000    
  0.70606237926541049       0.61362644822907586        0.00000000    
  0.61387811249992841       0.65853018866248003        0.00000000    
  0.51752361708032302       0.69535343026470620        0.00000000    
  0.41782582723955797       0.72470775652448560        0.00000000    
  0.31555108875645738       0.74701754947484755        0.00000000    
  0.21139137511953746       0.76269732813144286        0.00000000    
  0.10600023683181774       0.77198312352940213        0.00000000    
   0.0000000000000000       0.77506988754356909        0.00000000    
   0.0000000000000000       0.88009571220885008        0.00000000    
 -0.10331707798981077       0.87671855527463338        0.00000000    
 -0.20612877655495415       0.86661159647039498        0.00000000    
 -0.30794107032445117       0.84950619297137442        0.00000000    
 -0.40818851432656228       0.82518139543714986        0.00000000    
 -0.50633461180654638       0.79313038192144936        0.00000000    
 -0.60169749295726416       0.75289419250905487        0.00000000    
 -0.69362620836340050       0.70374531195376888        0.00000000    
 -0.78124280243113597       0.64502038048267785        0.00000000    
 -0.86367715138548884       0.57582207422140386        0.00000000    
 -0.93973130462539800       0.49538090678825486        0.00000000    
  -1.0081679072557161       0.40276289834206430        0.00000000    
  -1.0672795845080782       0.29732674158895983        0.00000000    
  -1.1152883549728236       0.17841544586363664        0.00000000    
  -1.1497359963831890        4.5987951316369444E-002   0.00000000    
  -1.1682054411913452       -9.9681141340984394E-002   0.00000000    