 <VTKFile type="UnstructuredGrid" version="0.1" byte_order="BigEndian">
 <UnstructuredGrid>
 <Piece NumberOfPoints="        2601 " NumberOfCells="        2500 ">
 <PointData Scalars="scalars">
 <DataArray type="Float32" NumberOfComponents="3" Name="Velocity" Format="ascii">
   0.0000000000000000        0.0000000000000000        0.00000000    
 -0.15032524728191837        0.0000000000000000        0.00000000    
 -0.30153670165980800        0.0000000000000000        0.00000000    
 -0.45386270692816472        0.0000000000000000        0.00000000    
 -0.60887108121568045        0.0000000000000000        0.00000000    
 -0.76606620845389239        0.0000000000000000        0.00000000    
 -0.92778286633407436        0.0000000000000000        0.00000000    
  -1.0925849025020409        0.0000000000000000        0.00000000    
  -1.2636898781787420        0.0000000000000000        0.00000000    
  -1.4382045087244240        0.0000000000000000        0.00000000    
  -1.6202857538291653        0.0000000000000000        0.00000000    
  -1.8043980419307417        0.0000000000000000        0.00000000    
  -1.9953535077943982        0.0000000000000000        0.00000000    
  -2.1823441597791984        0.0000000000000000        0.00000000    
  -2.3695807102641702        0.0000000000000000        0.00000000    
  -2.5375148166631969        0.0000000000000000        0.00000000    
  -2.6837207868523549        0.0000000000000000        0.00000000    
  -2.7850586788949308        0.0000000000000000        0.00000000    
  -2.8503984139585166        0.0000000000000000        0.00000000    
  -2.8636974006408669        0.0000000000000000        0.00000000    
  -2.8759701075495783        0.0000000000000000        0.00000000    
  -2.8473120263030269        0.0000000000000000        0.00000000    
  -2.8300363871388634        0.0000000000000000        0.00000000    
  -2.7761212106113384        0.0000000000000000        0.00000000    
  -2.5470876899171322        0.0000000000000000        0.00000000    
  -1.5873767356972517        0.0000000000000000        0.00000000    
   1.0255716694017762        0.0000000000000000        0.00000000    
   2.8251321326241743        0.0000000000000000        0.00000000    
   2.8501834894025335        0.0000000000000000        0.00000000    
   2.8498424687992929        0.0000000000000000        0.00000000    
   2.8726119396465872        0.0000000000000000        0.00000000    
   2.8706440785827301        0.0000000000000000        0.00000000    
   2.8503511090467981        0.0000000000000000        0.00000000    
   2.7875260597813933        0.0000000000000000        0.00000000    
   2.6767618678876879        0.0000000000000000        0.00000000    
   2.5367498752886797        0.0000000000000000        0.00000000    
   2.3678735812781930        0.0000000000000000        0.00000000    
   2.1854389900280662        0.0000000000000000        0.00000000    
   1.9973077331964102        0.0000000000000000        0.00000000    
   1.8080919788916872        0.0000000000000000        0.00000000    
   1.6227216779728268        0.0000000000000000        0.00000000    
   1.4413310124452439        0.0000000000000000        0.00000000    
   1.2657360992499251        0.0000000000000000        0.00000000    
   1.0949208026525186        0.0000000000000000        0.00000000    
  0.92927516504297547        0.0000000000000000        0.00000000    
  0.76764984487246446        0.0000000000000000        0.00000000    
  0.60982693980811420        0.0000000000000000        0.00000000    
  0.45477396181512353        0.0000000000000000        0.00000000    
  0.30200070900554643        0.0000000000000000        0.00000000    
  0.15062223008080072        0.0000000000000000        0.00000000    
   0.0000000000000000        0.0000000000000000        0.00000000    
   0.0000000000000000       0.14940957009492725        0.00000000    
 -0.14876484277404653       0.14968051995984233        0.00000000    
 -0.29805260565689234       0.15081869729969968        0.00000000    
 -0.44903576962325165       0.15249047193382240        0.00000000    
 -0.60156662642592529       0.15504875915517877        0.00000000    
 -0.75751757504343586       0.15809731669935473        0.00000000    
 -0.91593952255180500       0.16204128868801854        0.00000000    
  -1.0795026288921648       0.16632385381912906        0.00000000    
  -1.2461272677956465       0.17140576075989492        0.00000000    
  -1.4193831930055463       0.17636479499452906        0.00000000    
  -1.5953195384335819       0.18165279553712116        0.00000000    
  -1.7783805108873938       0.18552046501714964        0.00000000    
  -1.9610938371978235       0.18814832715587254        0.00000000    
  -2.1482719954129639       0.18602048304302984        0.00000000    
  -2.3255012314591985       0.17844530348723339        0.00000000    
  -2.4964777328569370       0.16046530430865477        0.00000000    
  -2.6377206745467237       0.12698360756957328        0.00000000    
  -2.7449383490260573        8.1571958951754425E-002   0.00000000    
  -2.8019224962463007        4.0751923331737452E-002   0.00000000    
  -2.8371551206024379        7.7796877065736663E-003   0.00000000    
  -2.8307809934218926       -1.8811079783546019E-003   0.00000000    
  -2.8439080505608292       -1.3649916129248086E-002   0.00000000    
  -2.8108052681785565       -3.6728505417196321E-002   0.00000000    
  -2.7029018832580465      -0.12509005603083115        0.00000000    
  -2.1149241174251188      -0.69192123049623389        0.00000000    
 -0.93870397820193707       -1.4440098629472724        0.00000000    
   1.0596775356861039       -3.1673200560369508        0.00000000    
   2.6408424996866509      -0.21340537119412481        0.00000000    
   2.8297880531936497       -5.9153909099798441E-004   0.00000000    
   2.8370939973044882       -6.3733844167140914E-003   0.00000000    
   2.8308931682695815       -1.0195257395540591E-002   0.00000000    
   2.8384833603222623        4.5729264066942396E-003   0.00000000    
   2.8083335796434521        4.5869823807969980E-002   0.00000000    
   2.7378772399455471        8.7411565154972948E-002   0.00000000    
   2.6358279158829370       0.12540195080084313        0.00000000    
   2.4925817332864275       0.15785622439394190        0.00000000    
   2.3280168051007761       0.17558499780135814        0.00000000    
   2.1495549215268155       0.18531147702176343        0.00000000    
   1.9648128324019576       0.18756186893373211        0.00000000    
   1.7807791679315494       0.18568754984031310        0.00000000    
   1.5987048653784919       0.18175705363049627        0.00000000    
   1.4215921283115145       0.17674634896292271        0.00000000    
   1.2487717117097146       0.17166898083304355        0.00000000    
   1.0812056609836853       0.16671236648922003        0.00000000    
  0.91782443052129670       0.16231450158153576        0.00000000    
  0.75868864476757625       0.15844660434150762        0.00000000    
  0.60276486847053368       0.15530007701869644        0.00000000    
  0.44971412022215895       0.15280364922147499        0.00000000    
  0.29863295105761367       0.15105077275145193        0.00000000    
  0.14898651318330169       0.14997414404640724        0.00000000    
   0.0000000000000000       0.14963459921649674        0.00000000    
   0.0000000000000000       0.29543429930523474        0.00000000    
 -0.14383825077310461       0.29625888429548297        0.00000000    
 -0.28840257283791104       0.29809241791050545        0.00000000    
 -0.43379435578368769       0.30159169823395560        0.00000000    
 -0.58136518085412725       0.30604921472695268        0.00000000    
 -0.73051400266497790       0.31219663155475458        0.00000000    
 -0.88327160811185601       0.31912152678666406        0.00000000    
  -1.0381283912659913       0.32766350521380677        0.00000000    
  -1.1978785707136170       0.33644092771513340        0.00000000    
  -1.3596628836953362       0.34636986622976351        0.00000000    
  -1.5271131712366621       0.35503435727007776        0.00000000    
  -1.6951155360952683       0.36320224059551193        0.00000000    
  -1.8681176545792322       0.36618199637077847        0.00000000    
  -2.0368628826161523       0.36391020007916725        0.00000000    
  -2.2063588524203075       0.34728079230045106        0.00000000    
  -2.3582726389772080       0.31452010344922626        0.00000000    
  -2.5013451404202485       0.25724425156099068        0.00000000    
  -2.6074127972492396       0.16459664626809134        0.00000000    
  -2.6661154352923284        7.3414021278282365E-002   0.00000000    
  -2.6935281307750292        3.7762909598828609E-002   0.00000000    
  -2.7701176603217230        3.8351072495552072E-002   0.00000000    
  -2.8098521252808815       -1.0205745046006872E-003   0.00000000    
  -2.6556039851600644      -0.23670876954297457        0.00000000    
  -1.6620511920017382       -1.0265659699271137        0.00000000    
 -0.49765555760612756       -1.5428187168068135        0.00000000    
  0.62667906554439534       -2.8936671389606539        0.00000000    
  0.42257903254771106       -3.5119442609013429        0.00000000    
  0.95878599128232678       -1.9861530890198547        0.00000000    
   2.6826107781070729      -0.14061416157354106        0.00000000    
   2.8071738781907660        1.7801938736674628E-003   0.00000000    
   2.7621058753137753        3.2919996226106162E-002   0.00000000    
   2.6931592780531126        2.2814077993309392E-002   0.00000000    
   2.6592764974891310        9.1661233463911168E-002   0.00000000    
   2.6027777170290705       0.16857527565678770        0.00000000    
   2.4961936164742595       0.25287166491577118        0.00000000    
   2.3627205624885410       0.30710574686054604        0.00000000    
   2.2084862061940291       0.34513475981397407        0.00000000    
   2.0408874479350945       0.36182235684108072        0.00000000    
   1.8705257728080618       0.36615475336522380        0.00000000    
   1.6985597725082058       0.36309433017800530        0.00000000    
   1.5292870454393268       0.35569730291359164        0.00000000    
   1.3623975105390873       0.34680837164590766        0.00000000    
   1.1996132733426241       0.33721161194714022        0.00000000    
   1.0401541204293205       0.32819493901328545        0.00000000    
  0.88453210147437100       0.31983517847361020        0.00000000    
  0.73189306528717257       0.31270074938916320        0.00000000    
  0.58217710511366272       0.30668566844038769        0.00000000    
  0.43459218838688984       0.30205372277373388        0.00000000    
  0.28879874621555207       0.29867531053386775        0.00000000    
  0.14409910066426002       0.29669568968839038        0.00000000    
   0.0000000000000000       0.29599866742086711        0.00000000    
   0.0000000000000000       0.43546528787412692        0.00000000    
 -0.13607499249658631       0.43614113899506651        0.00000000    
 -0.27240309387527184       0.43910258665320517        0.00000000    
 -0.40980313764482362       0.44337335620536505        0.00000000    
 -0.54790786989402718       0.44994311407398735        0.00000000    
 -0.68809967539670502       0.45764335952002722        0.00000000    
 -0.82925293708915648       0.46758566595953543        0.00000000    
 -0.97334338411651400       0.47814659622120942        0.00000000    
  -1.1182124431445457       0.49057707518222338        0.00000000    
  -1.2664750124515398       0.50228060105017414        0.00000000    
  -1.4144381571355631       0.51453705467388322        0.00000000    
  -1.5654200303765222       0.52268378129007964        0.00000000    
  -1.7133144101381239       0.52759695392069639        0.00000000    
  -1.8623160766609694       0.52024213708786193        0.00000000    
  -2.0020456759781422       0.50017442441209981        0.00000000    
  -2.1382155518687034       0.44971013378397340        0.00000000    
  -2.2444666829173050       0.37137785371711840        0.00000000    
  -2.3433172722767219       0.25538129029954854        0.00000000    
  -2.3865057534016993        8.4520496414428839E-002   0.00000000    
  -2.4790658704920601       0.14662924703558555        0.00000000    
  -2.5031792061399196        3.0187600255751179E-002   0.00000000    
  -1.9911329585919717      -0.46516888483265667        0.00000000    
 -0.96630018130679862      -0.95164137656766157        0.00000000    
 -0.44117515297574683       -1.8303111843713475        0.00000000    
  0.13835145556154516       -2.4829957452424161        0.00000000    
  0.26335373571641174       -3.2028270138126618        0.00000000    
  0.41181347899949500       -3.1471440962850012        0.00000000    
  0.36058855531840139       -2.8359352886729661        0.00000000    
  0.53494573635994269       -1.1890139297340052        0.00000000    
   1.9205903625829346      -0.46002776425774478        0.00000000    
   2.4479625596764683        1.2423760209380030E-002   0.00000000    
   2.4588693969986650       0.10135007394945143        0.00000000    
   2.3914487064072856       0.11442870866338253        0.00000000    
   2.3397853603961236       0.25396992692789055        0.00000000    
   2.2560513198076255       0.35779515478745327        0.00000000    
   2.1444650255948554       0.44724160518639455        0.00000000    
   2.0071728056788918       0.49652547769766997        0.00000000    
   1.8652925429270837       0.51991065996701946        0.00000000    
   1.7167039360386835       0.52701673225365420        0.00000000    
   1.5674136415459445       0.52348864608100054        0.00000000    
   1.4169860470981042       0.51500330852618614        0.00000000    
   1.2680077865184771       0.50337016151198366        0.00000000    
   1.1201407440409594       0.49130110175387920        0.00000000    
  0.97450323999640631       0.47920210616319170        0.00000000    
  0.83064021014314660       0.46831306013072477        0.00000000    
  0.68890963568781360       0.45859247837336126        0.00000000    
  0.54880353927413328       0.45061599604217811        0.00000000    
  0.41028036753697206       0.44423148363465820        0.00000000    
  0.27284181560742587       0.43972954377261692        0.00000000    
  0.13623245764542091       0.43695045996171877        0.00000000    
   0.0000000000000000       0.43607545545600335        0.00000000    
   0.0000000000000000       0.56592900096011967        0.00000000    
 -0.12552870907696106       0.56728112748139914        0.00000000    
 -0.25135757831633532       0.57011956878370273        0.00000000    
 -0.37725457023394138       0.57565340976081325        0.00000000    
 -0.50399444618539657       0.58250766871796200        0.00000000    
 -0.63070479792546130       0.59198096211759499        0.00000000    
 -0.75860308568839641       0.60229961281611466        0.00000000    
 -0.88598558425548357       0.61490559495789188        0.00000000    
  -1.0144862824668954       0.62718783368374309        0.00000000    
  -1.1412564919787604       0.64070262136635370        0.00000000    
  -1.2683197659003536       0.65114145296207993        0.00000000    
  -1.3912134110999532       0.65995490144131475        0.00000000    
  -1.5123702212812569       0.65937702371113172        0.00000000    
  -1.6250675561260517       0.65016106866399093        0.00000000    
  -1.7323276694984897       0.61724520552436324        0.00000000    
  -1.8236800818821222       0.56016164094490994        0.00000000    
  -1.9003096784260785       0.44380707414756954        0.00000000    
  -1.9173930542628601       0.29888603506464329        0.00000000    
  -1.8740594438547196        4.0870622365334772E-002   0.00000000    
  -1.7336872959546370       0.14246709029307095        0.00000000    
  -1.2361854217856625      -0.43903878149351400        0.00000000    
 -0.65000011267335700       -1.0941740596936840        0.00000000    
 -0.31045159852507764       -1.6870174931158808        0.00000000    
  0.23416465410408061       -2.1646763487308083        0.00000000    
  0.31457576389259129       -2.8085682991892380        0.00000000    
  0.32141667270570717       -3.0090976487807155        0.00000000    
   5.3531027002977120E-002  -3.2214475588808726        0.00000000    
  -9.0712814196029459E-002  -2.5661630611420598        0.00000000    
  0.30702163324516885       -2.0308777857339142        0.00000000    
  0.53539687139012337       -1.2321837725637126        0.00000000    
   1.2753299640339379      -0.48272552121254181        0.00000000    
   1.8091903453826386        5.1732136769550199E-002   0.00000000    
   1.9255522064882085       0.11510547533058774        0.00000000    
   1.9461256544946981       0.28438305826515187        0.00000000    
   1.9128778694070898       0.44436384912527277        0.00000000    
   1.8285402503141561       0.55659682415329625        0.00000000    
   1.7359600296147912       0.61704269934490186        0.00000000    
   1.6279587713985575       0.64927495928674928        0.00000000    
   1.5139512089570808       0.66024860226258530        0.00000000    
   1.3931804562637151       0.66031782325704103        0.00000000    
   1.2693473894059766       0.65243479265449755        0.00000000    
   1.1427627068887063       0.64150162047940473        0.00000000    
   1.0152903694414415       0.62850902271000619        0.00000000    
  0.88714019711068726       0.61578186158118309        0.00000000    
  0.75922150236320629       0.60351502931223866        0.00000000    
  0.63152541581531896       0.59281717019386349        0.00000000    
  0.50441545431409485       0.58360736213534514        0.00000000    
  0.37774493182608559       0.57643381176544828        0.00000000    
  0.25157038444918828       0.57114031494703776        0.00000000    
  0.12569172303977633       0.56802770815749226        0.00000000    
   0.0000000000000000       0.56692238794419858        0.00000000    
   0.0000000000000000       0.68546949991758443        0.00000000    
 -0.11291803916468107       0.68618737676433950        0.00000000    
 -0.22564450074975911       0.68976865032398793        0.00000000    
 -0.33840865534824410       0.69466547473537243        0.00000000    
 -0.45049329473914523       0.70232011908454473        0.00000000    
 -0.56246433465864820       0.71084990340932497        0.00000000    
 -0.67292694392474128       0.72179156855221238        0.00000000    
 -0.78269293346527302       0.73256212732814951        0.00000000    
 -0.88946520403533580       0.74480427009377792        0.00000000    
 -0.99417572486949202       0.75456691530106790        0.00000000    
  -1.0933140593031401       0.76347876738144604        0.00000000    
  -1.1877401231227520       0.76493729603987493        0.00000000    
  -1.2723517102545756       0.76016302642456635        0.00000000    
  -1.3475620545112557       0.73728274505072611        0.00000000    
  -1.4062779571609618       0.69609954515866412        0.00000000    
  -1.4464460356586419       0.61282779219057426        0.00000000    
  -1.4602946701591724       0.48161915394527377        0.00000000    
  -1.4082078166827752       0.22607047762588439        0.00000000    
  -1.2950032260027833       -4.2852021284256685E-002   0.00000000    
 -0.91102902435633093      -0.29815661557456391        0.00000000    
 -0.48113637374678248      -0.92580960035581361        0.00000000    
 -0.14757729555805640       -1.5271476281056688        0.00000000    
  0.31579696332915336       -2.0569666976885990        0.00000000    
  0.46245236196990386       -2.4859987954057190        0.00000000    
  0.51476694008278523       -2.6199715403628021        0.00000000    
  0.20986824094077081       -2.8996366172605561        0.00000000    
  -9.1192749539581841E-002  -2.7619619541623854        0.00000000    
 -0.24523930303475880       -2.7273582711526951        0.00000000    
 -0.25336541096845300       -2.2592909151702707        0.00000000    
  0.19018870381244932       -1.6756999960432246        0.00000000    
  0.44999322728092334       -1.0389469137789591        0.00000000    
  0.84788816827596625      -0.32380179300120926        0.00000000    
   1.2120268090147190        1.0138903325851325E-002   0.00000000    
   1.3758268217401877       0.20497616953492290        0.00000000    
   1.4532050934985097       0.47964025118347470        0.00000000    
   1.4472468100737632       0.61161632461137172        0.00000000    
   1.4066564879559105       0.69519374170287829        0.00000000    
   1.3477714436703492       0.73801021942926082        0.00000000    
   1.2729830705540579       0.76030927767668122        0.00000000    
   1.1877744014474803       0.76623656964161091        0.00000000    
   1.0939469982912395       0.76417651628273164        0.00000000    
  0.99428958264439282       0.75600199501402365        0.00000000    
  0.89007577127304660       0.74569479699280394        0.00000000    
  0.78287885527302314       0.73394317562790390        0.00000000    
  0.67345021355647172       0.72270105172834254        0.00000000    
  0.56265314176763459       0.71212430611323030        0.00000000    
  0.45087125104076564       0.70319207844285225        0.00000000    
  0.33854337919430283       0.69584748979116695        0.00000000    
  0.22584144216962970       0.69060312132166113        0.00000000    
  0.11296633364640139       0.68731867171426664        0.00000000    
   0.0000000000000000       0.68628948107236576        0.00000000    
   0.0000000000000000       0.79085944233327388        0.00000000    
  -9.8529356273865887E-002  0.79224482978595423        0.00000000    
 -0.19680979182927891       0.79471809444160957        0.00000000    
 -0.29419432623889102       0.79986471962461736        0.00000000    
 -0.39071120998347353       0.80572239732951700        0.00000000    
 -0.48517745565843451       0.81388491075760017        0.00000000    
 -0.57776644358366314       0.82180815839397958        0.00000000    
 -0.66658221556384500       0.83112729900589422        0.00000000    
 -0.75176312884998087       0.83819228227093656        0.00000000    
 -0.83047285010412986       0.84459914521102919        0.00000000    
 -0.90252700569022259       0.84463902748990949        0.00000000    
 -0.96387814045435793       0.83955423451398903        0.00000000    
  -1.0134643013542983       0.81974383598086764        0.00000000    
  -1.0457092097752956       0.78515718817093894        0.00000000    
  -1.0570576941004188       0.71828948901186407        0.00000000    
  -1.0399092923754982       0.61365752510893468        0.00000000    
 -0.97957896930026245       0.43430773245062382        0.00000000    
 -0.86275160404944462       0.10446768039168756        0.00000000    
 -0.66765392159736248      -0.22955149718748186        0.00000000    
 -0.49468373890020922      -0.66840152396750740        0.00000000    
 -0.17570943499208591       -1.3044316464521333        0.00000000    
  0.24945761533362346       -1.9072517104746753        0.00000000    
  0.43241595994131193       -2.3231952187893374        0.00000000    
  0.60302391519271503       -2.5370336281456982        0.00000000    
  0.55982103762736757       -2.5780484081500044        0.00000000    
  0.22619772101297111       -2.3030377336624777        0.00000000    
 -0.27494468463465227       -2.5563574416178563        0.00000000    
 -0.41817335900165786       -2.6356875557754860        0.00000000    
 -0.29879108202233129       -2.4622177995830130        0.00000000    
 -0.20923723581313355       -2.0058810725553666        0.00000000    
  0.17221790432180881       -1.3500255008632707        0.00000000    
  0.43711339666736221      -0.67551363918869534        0.00000000    
  0.66441980117095467      -0.22959429572444562        0.00000000    
  0.86325191607916085        8.2077240952240588E-002   0.00000000    
  0.96807851144549772       0.42033431263956672        0.00000000    
   1.0342186176470414       0.61074044037711261        0.00000000    
   1.0535007120101871       0.71737785369037843        0.00000000    
   1.0436511602998606       0.78456070343642315        0.00000000    
   1.0116393065126756       0.82055902057163810        0.00000000    
  0.96300357581079410       0.83983122655391218        0.00000000    
  0.90150737136577153       0.84590546697038171        0.00000000    
  0.83015774656013319       0.84528008477765504        0.00000000    
  0.75122986089920507       0.83955840426015682        0.00000000    
  0.66654621225616106       0.83196013300240523        0.00000000    
  0.57751811266669695       0.82314083565858021        0.00000000    
  0.48525056130917871       0.81474914532812348        0.00000000    
  0.39061222851766614       0.80698746274507382        0.00000000    
  0.29427391009516968       0.80071829575667153        0.00000000    
  0.19677896250041393       0.79592919997432698        0.00000000    
   9.8561445845155540E-002  0.79308521823884492        0.00000000    
   0.0000000000000000       0.79205071403809357        0.00000000    
   0.0000000000000000       0.88223089965768309        0.00000000    
  -8.3124968028168933E-002  0.88252769676231946        0.00000000    
 -0.16559164859927492       0.88518234359051684        0.00000000    
 -0.24699437793655477       0.88818773422132802        0.00000000    
 -0.32628280083633376       0.89320468937593545        0.00000000    
 -0.40315331433089768       0.89773937787941738        0.00000000    
 -0.47601364974957688       0.90340301461485129        0.00000000    
 -0.54446781383924492       0.90680237885356452        0.00000000    
 -0.60621266003236207       0.90944296190131402        0.00000000    
 -0.66046925228431652       0.90631477908542346        0.00000000    
 -0.70404842003526913       0.89855671695136630        0.00000000    
 -0.73529367470392248       0.87823293448395234        0.00000000    
 -0.74999285679041638       0.84535047899614613        0.00000000    
 -0.74460915637048519       0.78641175315529155        0.00000000    
 -0.71389743992694688       0.69767169190787548        0.00000000    
 -0.65034372871198698       0.55357320927146736        0.00000000    
 -0.54772166272339828       0.33143965922291418        0.00000000    
 -0.43120951361382559       -2.6003760742965818E-002   0.00000000    
 -0.29847147477948133      -0.42691577733989766        0.00000000    
  -5.2844454961100198E-002 -0.88963444630058042        0.00000000    
  0.12042452230175804       -1.5754420052427651        0.00000000    
  0.22284199451418726       -2.1638258741945120        0.00000000    
  0.48601208644074523       -2.5127494915540924        0.00000000    
  0.45125600070691124       -2.4833312248744646        0.00000000    
  0.14086381964969330       -2.2781557527464154        0.00000000    
   5.1124633993478635E-002  -2.1795678867779311        0.00000000    
   6.1895067439453749E-002  -2.1894553162437886        0.00000000    
 -0.26094433417003648       -2.5365216051632093        0.00000000    
 -0.40056538520775103       -2.5411449760719447        0.00000000    
 -0.18489278684333901       -2.2321803406329375        0.00000000    
  -8.8942258617175571E-002  -1.6011319010779834        0.00000000    
   9.1602723405367653E-002 -0.86984771333767164        0.00000000    
  0.27976363919922081      -0.45072754180195290        0.00000000    
  0.42458342554282785       -4.0441414224189329E-002   0.00000000    
  0.54295003922629437       0.31965975876452146        0.00000000    
  0.64095686576431932       0.54726806151090535        0.00000000    
  0.70805719188225580       0.69446781207417152        0.00000000    
  0.73982477914619282       0.78555270949755407        0.00000000    
  0.74689773472852661       0.84450591271411379        0.00000000    
  0.73261484631059848       0.87880295352987148        0.00000000    
  0.70239248525348030       0.89865230549534014        0.00000000    
  0.65890787655049632       0.90736747975998988        0.00000000    
  0.60534056942591441       0.90996620206210821        0.00000000    
  0.54356774449558520       0.90800880877252210        0.00000000    
  0.47557824593628756       0.90410975803599469        0.00000000    
  0.40265695659006989       0.89896906365315643        0.00000000    
  0.32608394081900416       0.89397889298138011        0.00000000    
  0.24674987483188335       0.88939924992870656        0.00000000    
  0.16551736155251973       0.88597570667516323        0.00000000    
   8.3051851951718117E-002  0.88372173779280239        0.00000000    
   0.0000000000000000       0.88302749227975286        0.00000000    
   0.0000000000000000       0.95705049610008275        0.00000000    
  -6.7105067080910880E-002  0.95793813542773543        0.00000000    
 -0.13346319559175795       0.95859671400577418        0.00000000    
 -0.19808339823971685       0.96079629579005998        0.00000000    
 -0.26031319584991264       0.96211434831588238        0.00000000    
 -0.31878171393318783       0.96416875051607420        0.00000000    
 -0.37274697448225097       0.96379923794462152        0.00000000    
 -0.42033039605930012       0.96244374118928822        0.00000000    
 -0.46044864843707439       0.95566469813514154        0.00000000    
 -0.49061682976748783       0.94451781643275179        0.00000000    
 -0.50903922145905045       0.92235523904517602        0.00000000    
 -0.51264040028965441       0.88928084588818967        0.00000000    
 -0.49836168209769705       0.83472303148501037        0.00000000    
 -0.46298048866434766       0.75627430681191843        0.00000000    
 -0.40179913058054156       0.63591606372236520        0.00000000    
 -0.31405367032914316       0.46402966598932521        0.00000000    