 <VTKFile type="UnstructuredGrid" version="0.1" byte_order="BigEndian">
 <UnstructuredGrid>
 <Piece NumberOfPoints="        2601 " NumberOfCells="        2500 ">
 <PointData Scalars="scalars">
 <DataArray type="Float32" NumberOfComponents="3" Name="Velocity" Format="ascii">
   0.0000000000000000        0.0000000000000000        0.00000000    
 -0.13139590392340464        0.0000000000000000        0.00000000    
 -0.26202109026820081        0.0000000000000000        0.00000000    
 -0.39072206038237961        0.0000000000000000        0.00000000    
 -0.51700214032627090        0.0000000000000000        0.00000000    
 -0.63920896873107524        0.0000000000000000        0.00000000    
 -0.75701767583361745        0.0000000000000000        0.00000000    
 -0.86815692725593296        0.0000000000000000        0.00000000    
 -0.97238044636551457        0.0000000000000000        0.00000000    
  -1.0666902929605211        0.0000000000000000        0.00000000    
  -1.1508498293008729        0.0000000000000000        0.00000000    
  -1.2210823766272667        0.0000000000000000        0.00000000    
  -1.2771579431404527        0.0000000000000000        0.00000000    
  -1.3146122600143648        0.0000000000000000        0.00000000    
  -1.3333687628720841        0.0000000000000000        0.00000000    
  -1.3286561444909040        0.0000000000000000        0.00000000    
  -1.3009631781030715        0.0000000000000000        0.00000000    
  -1.2460421196954532        0.0000000000000000        0.00000000    
  -1.1656538843088025        0.0000000000000000        0.00000000    
  -1.0572935979395064        0.0000000000000000        0.00000000    
 -0.92466931897962501        0.0000000000000000        0.00000000    
 -0.76798578134611217        0.0000000000000000        0.00000000    
 -0.59280995671012138        0.0000000000000000        0.00000000    
 -0.40191508252886737        0.0000000000000000        0.00000000    
 -0.20156718431740789        0.0000000000000000        0.00000000    
   3.8704004154946764E-003   0.0000000000000000        0.00000000    
  0.20881038079035236        0.0000000000000000        0.00000000    
  0.40787511816285116        0.0000000000000000        0.00000000    
  0.59696982497426643        0.0000000000000000        0.00000000    
  0.76990267734286544        0.0000000000000000        0.00000000    
  0.92472443222623679        0.0000000000000000        0.00000000    
   1.0553497270114660        0.0000000000000000        0.00000000    
   1.1625887990505037        0.0000000000000000        0.00000000    
   1.2418055442739604        0.0000000000000000        0.00000000    
   1.2963789693067271        0.0000000000000000        0.00000000    
   1.3236557263668483        0.0000000000000000        0.00000000    
   1.3284951130891081        0.0000000000000000        0.00000000    
   1.3097863328311543        0.0000000000000000        0.00000000    
   1.2726695720431667        0.0000000000000000        0.00000000    
   1.2168673244913766        0.0000000000000000        0.00000000    
   1.1470380566763589        0.0000000000000000        0.00000000    
   1.0632415666021455        0.0000000000000000        0.00000000    
  0.96933969424822475        0.0000000000000000        0.00000000    
  0.86550472782484611        0.0000000000000000        0.00000000    
  0.75475969150449373        0.0000000000000000        0.00000000    
  0.63733903844008744        0.0000000000000000        0.00000000    
  0.51551193063159872        0.0000000000000000        0.00000000    
  0.38961155823730886        0.0000000000000000        0.00000000    
  0.26128116894113373        0.0000000000000000        0.00000000    
  0.13102777130215079        0.0000000000000000        0.00000000    
   0.0000000000000000        0.0000000000000000        0.00000000    
   0.0000000000000000       0.13147860429928018        0.00000000    
 -0.13109378595571594       0.13101108557928001        0.00000000    
 -0.26125161987182793       0.12977193468106915        0.00000000    
 -0.38986451969917413       0.12754193525989435        0.00000000    
 -0.51555859111555302       0.12443221609981796        0.00000000    
 -0.63794796133162224       0.12016398252049286        0.00000000    
 -0.75510241443949544       0.11479917768936704        0.00000000    
 -0.86676171669037816       0.10799937598326728        0.00000000    
 -0.97032113085123395        9.9783557286616351E-002   0.00000000    
  -1.0655613766640413        8.9766535120632762E-002   0.00000000    
  -1.1491110873134047        7.7942711868530440E-002   0.00000000    
  -1.2207443253233483        6.3923073467241298E-002   0.00000000    
  -1.2763169869564084        4.7725154678455443E-002   0.00000000    
  -1.3156440441464643        2.9056219384946902E-002   0.00000000    
  -1.3340018218584826        8.0580611842439188E-003   0.00000000    
  -1.3314939327092143       -1.5278568715257818E-002   0.00000000    
  -1.3033809060596724       -4.0527424322661050E-002   0.00000000    
  -1.2506171032633218       -6.7157436881874713E-002   0.00000000    
  -1.1695165621680117       -9.4331339600628880E-002   0.00000000    
  -1.0626908193997615      -0.12085468953748559        0.00000000    
 -0.92881703205287325      -0.14564337676982617        0.00000000    
 -0.77264501906278227      -0.16721217385434983        0.00000000    
 -0.59579688032012168      -0.18481178952484478        0.00000000    
 -0.40451027738552198      -0.19736968759158427        0.00000000    
 -0.20256275535082222      -0.20492573265512151        0.00000000    
   3.8596676160659819E-003 -0.20693427504524742        0.00000000    
  0.20985613770839404      -0.20400217542248489        0.00000000    
  0.41043568395546293      -0.19564210819766087        0.00000000    
  0.59972742373431032      -0.18274433839314774        0.00000000    
  0.77454492745539205      -0.16500601769710982        0.00000000    
  0.92844015186855910      -0.14371096159997362        0.00000000    
   1.0608114733736596      -0.11928565469092765        0.00000000    
   1.1660618636252877       -9.3203807600282906E-002   0.00000000    
   1.2465186727964555       -6.6469746794910342E-002   0.00000000    
   1.2985674236682521       -4.0152429110199096E-002   0.00000000    
   1.3266486140705063       -1.5205518352743995E-002   0.00000000    
   1.3290370572103538        7.9776884900891482E-003   0.00000000    
   1.3109499104735585        2.8818238504094106E-002   0.00000000    
   1.2718168435603927        4.7431589196508320E-002   0.00000000    
   1.2166257638880582        6.3561738027051007E-002   0.00000000    
   1.1453226717914560        7.7570621884015215E-002   0.00000000    
   1.0621770397813004        8.9371500199790330E-002   0.00000000    
  0.96731391712572157        9.9393494809154020E-002   0.00000000    
  0.86414967689436106       0.10760571184502099        0.00000000    
  0.75287562608356839       0.11441337528556747        0.00000000    
  0.63610140836774820       0.11978149549409560        0.00000000    
  0.51409129998978187       0.12405572069180089        0.00000000    
  0.38876598372556653       0.12716996796614333        0.00000000    
  0.26052366695535911       0.12940273809967964        0.00000000    
  0.13072930803879135       0.13064501845530951        0.00000000    
   0.0000000000000000       0.13111206088507185        0.00000000    
   0.0000000000000000       0.26216571374673847        0.00000000    
 -0.13000113538348651       0.26141889747045677        0.00000000    
 -0.25927737015140656       0.25879819147335320        0.00000000    
 -0.38672637941060278       0.25457758755358967        0.00000000    
 -0.51189814942626477       0.24826240523758825        0.00000000    
 -0.63320150724660740       0.24002652141857544        0.00000000    
 -0.75036485277789977       0.22925443742987101        0.00000000    
 -0.86118840673134966       0.21602697244654129        0.00000000    
 -0.96548817224356598       0.19961514049583218        0.00000000    
  -1.0603389029585923       0.18002592843870141        0.00000000    
  -1.1455683646989647       0.15646249093961082        0.00000000    
  -1.2174454522037121       0.12891361991030664        0.00000000    
  -1.2757796273508564        9.6641445015004795E-002   0.00000000    
  -1.3160637427274871        5.9751101614545922E-002   0.00000000    
  -1.3381767715316706        1.7833985470253139E-002   0.00000000    
  -1.3371129609792791       -2.8626192703459025E-002   0.00000000    
  -1.3131609451821646       -7.9244842781712704E-002   0.00000000    
  -1.2615597685793440      -0.13280499782252181        0.00000000    
  -1.1837449792029355      -0.18759910913230113        0.00000000    
  -1.0765934956589385      -0.24156414631858331        0.00000000    
 -0.94366436622377536      -0.29173683677138568        0.00000000    
 -0.78498225946513045      -0.33597283360204738        0.00000000    
 -0.60647258004890547      -0.37140894793664486        0.00000000    
 -0.41128764366712756      -0.39724406849668331        0.00000000    
 -0.20627954882234528      -0.41200696863012304        0.00000000    
   3.9745424147396421E-003 -0.41652955327474195        0.00000000    
  0.21352200202997587      -0.40995082690117396        0.00000000    
  0.41702794030785545      -0.39377894124444374        0.00000000    
  0.61007791163805691      -0.36694921645602974        0.00000000    
  0.78608881570685241      -0.33162954742463063        0.00000000    
  0.94291292657719827      -0.28780676715657627        0.00000000    
   1.0738770426986597      -0.23852528676141260        0.00000000    
   1.1801542941577772      -0.18549181724114733        0.00000000    
   1.2569875844007790      -0.13147183656874445        0.00000000    
   1.3084498807562308       -7.8661386564211608E-002   0.00000000    
   1.3321385569173063       -2.8466427462596228E-002   0.00000000    
   1.3334213887620925        1.7567322614715150E-002   0.00000000    
   1.3114265532380287        5.9310586639786431E-002   0.00000000    
   1.2714958558306859        9.6003005380735487E-002   0.00000000    
   1.2134503961888308       0.12822686115646728        0.00000000    
   1.1419593130642129       0.15569967397523365        0.00000000    
   1.0570831799853102       0.17926421319707886        0.00000000    
  0.96261386203910959       0.19883322241306331        0.00000000    
  0.85868446481815563       0.21525962169286902        0.00000000    
  0.74822881880436698       0.22848916226172258        0.00000000    
  0.63143375741972718       0.23927498761783950        0.00000000    
  0.51048659164757315       0.24751950271760240        0.00000000    
  0.38567518431998449       0.25384290953158334        0.00000000    
  0.25857580317238693       0.25807149445147187        0.00000000    
  0.12965240164893332       0.26069402254297153        0.00000000    
   0.0000000000000000       0.26144476648456466        0.00000000    
   0.0000000000000000       0.39160355813118458        0.00000000    
 -0.12826553354968659       0.39024772201860541        0.00000000    
 -0.25568794068032896       0.38666800882319535        0.00000000    
 -0.38174618028547658       0.38021501906750671        0.00000000    
 -0.50517555222471133       0.37122611567800279        0.00000000    
 -0.62568586424262140       0.35887648081582280        0.00000000    
 -0.74147892959423767       0.34336088891497396        0.00000000    
 -0.85240772963104705       0.32367287495109970        0.00000000    
 -0.95601677235757776       0.29987804622946962        0.00000000    
  -1.0522169374522603       0.27081391851416980        0.00000000    
  -1.1377719796868622       0.23645900483857335        0.00000000    
  -1.2125767411301587       0.19559895495877733        0.00000000    
  -1.2725281903893086       0.14824173437229327        0.00000000    
  -1.3174743798688844        9.3381117112847731E-002   0.00000000    
  -1.3424799216950072        3.1322540601731390E-002   0.00000000    
  -1.3474472998040827       -3.8211180278875996E-002   0.00000000    
  -1.3269352045786489      -0.11412396622935948        0.00000000    
  -1.2813429391963209      -0.19511931636065385        0.00000000    
  -1.2057005045945584      -0.27874201457284714        0.00000000    
  -1.1019553598150791      -0.36131786920215037        0.00000000    
 -0.96766898522247258      -0.43919861791608872        0.00000000    
 -0.80768017465479425      -0.50718196978431329        0.00000000    
 -0.62393120478761965      -0.56245846103827701        0.00000000    
 -0.42382616738472983      -0.60148452918037454        0.00000000    
 -0.21212149428473828      -0.62447927589170615        0.00000000    
   3.9544113474546966E-003 -0.63038724288309766        0.00000000    
  0.21957940752114474      -0.62126559308224505        0.00000000    
  0.42913010227393250      -0.59552080809470009        0.00000000    
  0.62657744089174661      -0.55570465955428994        0.00000000    
  0.80795868749925792      -0.50026625500333111        0.00000000    
  0.96547517314240838      -0.43351065609187522        0.00000000    
   1.0986902545440922      -0.35700059534989981        0.00000000    
   1.2011950801674138      -0.27579858573560795        0.00000000    
   1.2767107405273610      -0.19351401867786530        0.00000000    
   1.3219596476187254      -0.11333040790242409        0.00000000    
   1.3427093653049558       -3.8235799972313529E-002   0.00000000    
   1.3378253894660190        3.0937839118054592E-002   0.00000000    
   1.3131651779601803        9.2595117165734930E-002   0.00000000    
   1.2684769121467383       0.14733743807503366        0.00000000    
   1.2088875676790485       0.19452723257110535        0.00000000    
   1.1344067881435198       0.23537116522019494        0.00000000    
   1.0492049904128993       0.26967065276103996        0.00000000    
  0.95334943971188191       0.29875165149576616        0.00000000    
  0.85008103912840238       0.32253899041400358        0.00000000    
  0.73949841482970224       0.34224806385251633        0.00000000    
  0.62403609127154702       0.35777347096924955        0.00000000    
  0.50386618213230772       0.37013809427701960        0.00000000    
  0.38076199868452765       0.37913990874695042        0.00000000    
  0.25503678393402324       0.38559909113363522        0.00000000    
  0.12793849098936888       0.38918812032833533        0.00000000    
   0.0000000000000000       0.39054156133692675        0.00000000    
   0.0000000000000000       0.51859692566950633        0.00000000    
 -0.12567000871481623       0.51718989674420401        0.00000000    
 -0.25074132054335063       0.51221955305618194        0.00000000    
 -0.37425488754372266       0.50423528143946594        0.00000000    
 -0.49588860190102513       0.49226893960198048        0.00000000    
 -0.61422655897996836       0.47668192598813375        0.00000000    
 -0.72914514228560412       0.45626709239930485        0.00000000    
 -0.83865642411438224       0.43120675333180147        0.00000000    
 -0.94275588380691844       0.40005267026721586        0.00000000    
  -1.0387475835270548       0.36283115929069776        0.00000000    
  -1.1266606173496116       0.31790984011857565        0.00000000    
  -1.2029426744036360       0.26523493817556332        0.00000000    
  -1.2675674792811809       0.20318200529156388        0.00000000    
  -1.3160002450195483       0.13181980141099908        0.00000000    
  -1.3480907097908750        4.9979862900381290E-002   0.00000000    
  -1.3583050845794442       -4.1686749680388123E-002   0.00000000    
  -1.3464431485810686      -0.14302242805231180        0.00000000    
  -1.3062965415598848      -0.25195972694171009        0.00000000    
  -1.2382331711701002      -0.36560740898400451        0.00000000    
  -1.1367600442697552      -0.47967074647130081        0.00000000    
  -1.0045152910204163      -0.58737686848955828        0.00000000    
 -0.84032877385812832      -0.68317904694128584        0.00000000    
 -0.65106609222930445      -0.75947303537799193        0.00000000    
 -0.44173457438266295      -0.81390651009066606        0.00000000    
 -0.22138204375788562      -0.84411449870688671        0.00000000    
   4.3559033023826002E-003 -0.85256587276085638        0.00000000    
  0.22841033861282528      -0.83876639468932590        0.00000000    
  0.44639233041090215      -0.80555269303896260        0.00000000    
  0.65244990044695439      -0.74917768326459333        0.00000000    
  0.83843115379309607      -0.67415573124716255        0.00000000    
   1.0012434004838304      -0.57994991218261305        0.00000000    
   1.1318821953680405      -0.47441521554553906        0.00000000    
   1.2334384320151204      -0.36244502781103993        0.00000000    
   1.3011655339597026      -0.25011033890745871        0.00000000    
   1.3417045891306332      -0.14252204993578180        0.00000000    
   1.3536993808184912       -4.1788667313554358E-002   0.00000000    
   1.3438764038922748        4.9197659223803647E-002   0.00000000    
   1.3120492133405048       0.13082269911706973        0.00000000    
   1.2639610839275970       0.20188625134941415        0.00000000    
   1.1996358488687415       0.26389299882273254        0.00000000    
   1.1236662165822437       0.31645581078996893        0.00000000    
   1.0360640311213258       0.36138999038225661        0.00000000    
  0.94036890475281709       0.39858299094345911        0.00000000    
  0.83658230898166941       0.42976264732037961        0.00000000    
  0.72736101509750528       0.45482832512839677        0.00000000    
  0.61275235980414433       0.47526418854431868        0.00000000    
  0.49470269750779783       0.49086694813693588        0.00000000    
  0.37337349020877381       0.50284444563326569        0.00000000    
  0.25014956949196171       0.51084368971404248        0.00000000    
  0.12537675584777919       0.51581462833618441        0.00000000    
   0.0000000000000000       0.51723030016563831        0.00000000    
   0.0000000000000000       0.64295117038171490        0.00000000    
 -0.12233081474518089       0.64083647549139644        0.00000000    
 -0.24398292322375284       0.63529639461551135        0.00000000    
 -0.36458809829082262       0.62527718194697091        0.00000000    
 -0.48308097536096795       0.61135363052135050        0.00000000    
 -0.59933817412924850       0.59219239091536835        0.00000000    
 -0.71181207298901594       0.56814910963691256        0.00000000    
 -0.82055983740124749       0.53758378233457249        0.00000000    
 -0.92342693917810859       0.50064220273329396        0.00000000    
  -1.0205771183087524       0.45538350567475699        0.00000000    
  -1.1090856215512268       0.40177903079901195        0.00000000    
  -1.1891259773040235       0.33768816030129317        0.00000000    
  -1.2567988939459438       0.26302650468477817        0.00000000    
  -1.3121554182761761       0.17576459208571651        0.00000000    
  -1.3501032955926429        7.6073414312951504E-002   0.00000000    
  -1.3703991523210837       -3.7270069576627561E-002   0.00000000    
  -1.3666035955806595      -0.16309660089535913        0.00000000    
  -1.3381713292074850      -0.30046442749371310        0.00000000    
  -1.2775337220696221      -0.44580368596012032        0.00000000    
  -1.1848580575545302      -0.59362326091132367        0.00000000    
  -1.0536386121860364      -0.73688855266782372        0.00000000    
 -0.88772834706741299      -0.86376414504464938        0.00000000    
 -0.68910063604549221      -0.96677832992582258        0.00000000    
 -0.46788116943553265       -1.0371522000001736        0.00000000    
 -0.23354276751990050       -1.0755597413382436        0.00000000    
   3.9893299254257168E-003  -1.0843906746358472        0.00000000    
  0.24118124551925554       -1.0681879437190653        0.00000000    
  0.47080302125307782       -1.0237349115418730        0.00000000    
  0.68756991829759428      -0.95381993184270641        0.00000000    
  0.88403556296441876      -0.85196038068275093        0.00000000    
   1.0475973127834570      -0.72851925925725280        0.00000000    
   1.1794836357415972      -0.58837098631396012        0.00000000    
   1.2719144967600415      -0.44247635470861113        0.00000000    
   1.3333171669098667      -0.29920878410498886        0.00000000    
   1.3620639699108781      -0.16270946291068109        0.00000000    
   1.3663833692591958       -3.7915445375508783E-002   0.00000000    
   1.3464192163273723        7.5111567143289842E-002   0.00000000    
   1.3088147471584737       0.17434045091758790        0.00000000    
   1.2537491246154919       0.26152225150426073        0.00000000    
   1.1863352978555706       0.33599606048601188        0.00000000    
   1.1065670561168686       0.40009062315134875        0.00000000    
   1.0182915238942238       0.45363289570380183        0.00000000    
  0.92140974368102668       0.49891699220306590        0.00000000    
  0.81877362931543707       0.53585135619688185        0.00000000    
  0.71029398755885542       0.56644055189207587        0.00000000    
  0.59805673641951740       0.59049786821272054        0.00000000    
  0.48206603073370330       0.60967363645012018        0.00000000    
  0.36381704786033686       0.62361594749186477        0.00000000    
  0.24347460715821814       0.63363854927379104        0.00000000    
  0.12207345498822823       0.63919373459000794        0.00000000    
   0.0000000000000000       0.64130140474723030        0.00000000    
   0.0000000000000000       0.76302914617345663        0.00000000    
 -0.11802390965571212       0.76111322409994897        0.00000000    
 -0.23562353119849047       0.75427137602769678        0.00000000    
 -0.35204532803808503       0.74332917244086527        0.00000000    
 -0.46714096485784862       0.72689015391673872        0.00000000    
 -0.57975747359104846       0.70552957502089009        0.00000000    
 -0.68997635780110278       0.67750470860057244        0.00000000    
 -0.79614655103059473       0.64314614101208045        0.00000000    
 -0.89852870766136717       0.60032910246276505        0.00000000    
 -0.99482943062397367       0.54914750803799695        0.00000000    
  -1.0854152167726625       0.48710931782626543        0.00000000    
  -1.1671362651436210       0.41411927739727178        0.00000000    
  -1.2403413806685764       0.32747341975499011        0.00000000    
  -1.3007189992703507       0.22705181994700543        0.00000000    
  -1.3483865851961849       0.11040164969326284        0.00000000    
  -1.3774960350252510       -2.2192998399917341E-002   0.00000000    
  -1.3875316889076159      -0.17193357493084277        0.00000000    
  -1.3706787419213839      -0.33691266681809956        0.00000000    
  -1.3256412173311725      -0.51503057836453581        0.00000000    
  -1.2424307831918731      -0.70028246716174025        0.00000000    
  -1.1209785346281351      -0.88290104035037897        0.00000000    
 -0.95284086992282246       -1.0517995871864536        0.00000000    
 -0.74413697607482554       -1.1860744926547000        0.00000000    
 -0.50557947289253935       -1.2776330070639652        0.00000000    
 -0.25158508237870647       -1.3234117267047147        0.00000000    
   5.4107973214187295E-003  -1.3310666664152648        0.00000000    
  0.25658369665503239       -1.3098767668678994        0.00000000    
  0.50562029132646269       -1.2607044587987277        0.00000000    
  0.73953903219149464       -1.1675360224961884        0.00000000    
  0.94415746764788144       -1.0393283701529081        0.00000000    
   1.1145111331148134      -0.87506668507382357        0.00000000    
   1.2358335249195256      -0.69503227526067435        0.00000000    
   1.3205087907445725      -0.51292119260612334        0.00000000    
   1.3662382057739164      -0.33589603138710444        0.00000000    
   1.3838443835531742      -0.17237519640955035        0.00000000    
   1.3742937117254161       -2.3018439397683405E-002   0.00000000    
   1.3455375263809572       0.10893489944104799        0.00000000    
   1.2981726305298058       0.22548648363937143        0.00000000    
   1.2379801403038173       0.32563433155076704        0.00000000    
   1.1650032615543666       0.41227468594834826        0.00000000    
   1.0834257470507396       0.48515775393067612        0.00000000    
  0.99305162347406251       0.54721542072325124        0.00000000    
  0.89690033897659160       0.59836753189363390        0.00000000    
  0.79473202004540078       0.64120524980253291        0.00000000    
  0.68872921960846334       0.67556910047930629        0.00000000    
  0.57872836007552853       0.70360743029718997        0.00000000    
  0.46629690427981990       0.72498623584654753        0.00000000    
  0.35142036235714885       0.74142887289089154        0.00000000    
  0.23519778023702800       0.75239064669638833        0.00000000    
  0.11781436299258000       0.75922620658125350        0.00000000    
   0.0000000000000000       0.76115675073618794        0.00000000    
   0.0000000000000000       0.87885609827954692        0.00000000    
 -0.11285398733304296       0.87616416898199978        0.00000000    
 -0.22522588007651848       0.86919194543130207        0.00000000    
 -0.33692216957763726       0.85652668937734311        0.00000000    
 -0.44712927434257782       0.83899537856438378        0.00000000    
 -0.55591297069809320       0.81482455546131327        0.00000000    
 -0.66206148145596688       0.78457712312751282        0.00000000    
 -0.76587443121883991       0.74605686947684147        0.00000000    
 -0.86563472640434580       0.69956082581373580        0.00000000    
 -0.96183873246023510       0.64242051370484043        0.00000000    
  -1.0520863636409787       0.57466972948832629        0.00000000    
  -1.1369930757684108       0.49318662623290244        0.00000000    
  -1.2131779877378852       0.39779609841328079        0.00000000    
  -1.2812095941219854       0.28513836627387140        0.00000000    
  -1.3362588008709781       0.15503189604073625        0.00000000    
  -1.3785147657908556        4.5421700008178439E-003   0.00000000    
  -1.4011256992925387      -0.16602215594799219        0.00000000    
  -1.4029581275692378      -0.35784460451123579        0.00000000    
  -1.3742073747334689      -0.56788691809781533        0.00000000    
  -1.3122315496843930      -0.79261238661759925        0.00000000    
  -1.2025935830058412       -1.0216613361372135        0.00000000    
  -1.0458272825746735       -1.2379432565368780        0.00000000    
 -0.82925843194183191       -1.4252035677854991        0.00000000    
 -0.56176777681005940       -1.5445520902480463        0.00000000    
 -0.27922377505450308       -1.5930310357904327        0.00000000    
   2.3146451935391736E-003  -1.5999816572785868        0.00000000    
  0.28555724343805539       -1.5753772735831393        0.00000000    
  0.55527274611776023       -1.5139560494354831        0.00000000    
  0.81462715328107949       -1.4075575798881867        0.00000000    
   1.0380658722096792       -1.2273639671467111        0.00000000    
   1.1945347978351113       -1.0138536791727719        0.00000000    
   1.3067601310295256      -0.78979300616163117        0.00000000    
   1.3701140374068679      -0.56618963390797561        0.00000000    
   1.3998702017184721      -0.35811316942695776        0.00000000    
   1.3987643720977405      -0.16665840652867994        0.00000000    
   1.3764847621442438        3.0950525019665573E-003   0.00000000    
   1.3345518780573387       0.15351047697227405        0.00000000    
   1.2795655954217942       0.28326208459412727        0.00000000    
   1.2117042140664256       0.39591260217685476        0.00000000    
   1.1355331628629193       0.49114434527452322        0.00000000    
   1.0507646034519231       0.57263416851858862        0.00000000    
  0.96055520737020561       0.64032252579305926        0.00000000    
  0.86449615483171249       0.69747076385923568        0.00000000    
  0.76481270201263274       0.74395378958654168        0.00000000    
  0.66115770266837082       0.78247836047592767        0.00000000    
  0.55512024967125972       0.81273648282996958        0.00000000    
  0.44650337890679170       0.83690550987336176        0.00000000    
  0.33643313768206445       0.85445638201084528        0.00000000    
  0.22490611917282491       0.86711273820519885        0.00000000    
  0.11268879887925239       0.87410485260984305        0.00000000    
   0.0000000000000000       0.87678126657882305        0.00000000    
   0.0000000000000000       0.98837445256810419        0.00000000    
 -0.10662575914952728       0.98612556117539862        0.00000000    
 -0.21300246549009560       0.97797915232131472        0.00000000    
 -0.31859883098408420       0.96503213748184136        0.00000000    
 -0.42343200114603757       0.94553020538612809        0.00000000    
 -0.52665354227512717       0.92029496612359685        0.00000000    
 -0.62854226964640725       0.88714395059371265        0.00000000    
 -0.72786689176611274       0.84662761389266172        0.00000000    
 -0.82516519162507274       0.79604867644169219        0.00000000    
 -0.91870165668461334       0.73567313419177616        0.00000000    
  -1.0092513757126729       0.66221445920948296        0.00000000    
  -1.0943465108443942       0.57564374377038396        0.00000000    
  -1.1749152249533381       0.47209260695348604        0.00000000    
  -1.2473294199583695       0.35128765912230603        0.00000000    
  -1.3124547885536357       0.20905717853580677        0.00000000    
  -1.3647840210567939        4.5102084928317271E-002   0.00000000    