 <VTKFile type="UnstructuredGrid" version="0.1" byte_order="BigEndian">
 <UnstructuredGrid>
 <Piece NumberOfPoints="        2601 " NumberOfCells="        2500 ">
 <PointData Scalars="scalars">
 <DataArray type="Float32" NumberOfComponents="3" Name="Velocity" Format="ascii">
   0.0000000000000000        0.0000000000000000        0.00000000    
  -5.1941552511059440E-002   0.0000000000000000        0.00000000    
 -0.10382707333784942        0.0000000000000000        0.00000000    
 -0.15661475383195470        0.0000000000000000        0.00000000    
 -0.20921891125558512        0.0000000000000000        0.00000000    
 -0.26375537420723622        0.0000000000000000        0.00000000    
 -0.31793471324584838        0.0000000000000000        0.00000000    
 -0.37538758029468633        0.0000000000000000        0.00000000    
 -0.43223564311369855        0.0000000000000000        0.00000000    
 -0.49433899769152106        0.0000000000000000        0.00000000    
 -0.55549908524276503        0.0000000000000000        0.00000000    
 -0.62520114097342516        0.0000000000000000        0.00000000    
 -0.69353077280916353        0.0000000000000000        0.00000000    
 -0.77638440415981458        0.0000000000000000        0.00000000    
 -0.85723370998619264        0.0000000000000000        0.00000000    
 -0.96388989311045903        0.0000000000000000        0.00000000    
  -1.0660113864149314        0.0000000000000000        0.00000000    
  -1.2097387087794316        0.0000000000000000        0.00000000    
  -1.3270188298056338        0.0000000000000000        0.00000000    
  -1.3910981418767607        0.0000000000000000        0.00000000    
  -1.3683826073670384        0.0000000000000000        0.00000000    
  -1.1763651314919226        0.0000000000000000        0.00000000    
 -0.93949713918621414        0.0000000000000000        0.00000000    
 -0.61897169088885273        0.0000000000000000        0.00000000    
 -0.31252548469654495        0.0000000000000000        0.00000000    
  -3.2831982701661092E-007   0.0000000000000000        0.00000000    
  0.31252483925976904        0.0000000000000000        0.00000000    
  0.61897107590798384        0.0000000000000000        0.00000000    
  0.93949657971591360        0.0000000000000000        0.00000000    
   1.1763646291344383        0.0000000000000000        0.00000000    
   1.3683821696075524        0.0000000000000000        0.00000000    
   1.3910977448129702        0.0000000000000000        0.00000000    
   1.3270184588123806        0.0000000000000000        0.00000000    
   1.2097383532239734        0.0000000000000000        0.00000000    
   1.0660110382769368        0.0000000000000000        0.00000000    
  0.96388956071803100        0.0000000000000000        0.00000000    
  0.85723339145378463        0.0000000000000000        0.00000000    
  0.77638410484751963        0.0000000000000000        0.00000000    
  0.69353049265201183        0.0000000000000000        0.00000000    
  0.62520088275241759        0.0000000000000000        0.00000000    
  0.55549884856322940        0.0000000000000000        0.00000000    
  0.49433878428730021        0.0000000000000000        0.00000000    
  0.43223545255970236        0.0000000000000000        0.00000000    
  0.37538741379114116        0.0000000000000000        0.00000000    
  0.31793457028289906        0.0000000000000000        0.00000000    
  0.26375525508364811        0.0000000000000000        0.00000000    
  0.20921881572699011        0.0000000000000000        0.00000000    
  0.15661468225629263        0.0000000000000000        0.00000000    
  0.10382702557557175        0.0000000000000000        0.00000000    
   5.1941528636618661E-002   0.0000000000000000        0.00000000    
   0.0000000000000000        0.0000000000000000        0.00000000    
   0.0000000000000000        5.1507198761209808E-002   0.00000000    
  -5.1286493372357654E-002   5.1722395831622629E-002   0.00000000    
 -0.10299699051372443        5.1875170631390535E-002   0.00000000    
 -0.15456939052316993        5.2486458088273014E-002   0.00000000    
 -0.20746808285872695        5.3017939216710289E-002   0.00000000    
 -0.26005160502221913        5.4103592855667210E-002   0.00000000    
 -0.31504790250744763        5.5073589411018371E-002   0.00000000    
 -0.36946901185928605        5.6801931762085811E-002   0.00000000    
 -0.42778029794547529        5.8358959976541724E-002   0.00000000    
 -0.48511791661874010        6.1083554615574936E-002   0.00000000    
 -0.54859854379115314        6.3558698438125685E-002   0.00000000    
 -0.61048093909647583        6.8027288636720265E-002   0.00000000    
 -0.68229429354466242        7.2117228905026975E-002   0.00000000    
 -0.75142516764370815        7.9868804109686192E-002   0.00000000    
 -0.83725194737675934        8.6808800915783399E-002   0.00000000    
 -0.91778344972149306       0.10038039738655424        0.00000000    
  -1.0264676320027699       0.11042677567813994        0.00000000    
  -1.1195336854014863       0.12636808307364733        0.00000000    
  -1.2472055058565961       0.11858530748681667        0.00000000    
  -1.3174101492682939        1.5700053988225514E-002   0.00000000    
  -1.2503132763518303      -0.10551110842939616        0.00000000    
  -1.1082960123943639      -0.22852234797076629        0.00000000    
 -0.82152957249723724      -0.29511084920723424        0.00000000    
 -0.55633252766001318      -0.29061045995997270        0.00000000    
 -0.27677529613023349      -0.29539181951048415        0.00000000    
  -3.2558534876159226E-007 -0.29390716359231445        0.00000000    
  0.27677465379070765      -0.29539183954453690        0.00000000    
  0.55633191397490844      -0.29061049903625474        0.00000000    
  0.82152900249737038      -0.29511090932677125        0.00000000    
   1.1082955107233443      -0.22852241329290715        0.00000000    
   1.2503128284974367      -0.10551116152189055        0.00000000    
   1.3174097490432326        1.5700018755689226E-002   0.00000000    
   1.2472051292608826       0.11858529301946955        0.00000000    
   1.1195333187945502       0.12636807211442844        0.00000000    
   1.0264672820759813       0.11042676253975900        0.00000000    
  0.91778311221286690       0.10038038236121967        0.00000000    
  0.83725162843488776        8.6808783514356738E-002   0.00000000    
  0.75142486645124262        7.9868784541607660E-002   0.00000000    
  0.68229401375104426        7.2117207919129012E-002   0.00000000    
  0.61048068021882163        6.8027266770524258E-002   0.00000000    
  0.54859830784539632        6.3558675830966110E-002   0.00000000    
  0.48511770310081193        6.1083531519605549E-002   0.00000000    
  0.42778010833876678        5.8358936311080412E-002   0.00000000    
  0.36946884549819115        5.6801908131495868E-002   0.00000000    
  0.31504775990986966        5.5073565737508393E-002   0.00000000    
  0.26005148602678813        5.4103569087682150E-002   0.00000000    
  0.20746798776979611        5.3017915483214877E-002   0.00000000    
  0.15456931906227220        5.2486434240815692E-002   0.00000000    
  0.10299694293449425        5.1875146783808584E-002   0.00000000    
   5.1286469556227322E-002   5.1722372028280533E-002   0.00000000    
   0.0000000000000000        5.1507174873993512E-002   0.00000000    
   0.0000000000000000       0.10221118516972008        0.00000000    
  -4.9834505414969837E-002  0.10214089518198360        0.00000000    
  -9.9572133164236368E-002  0.10290628308626129        0.00000000    
 -0.15005342054583176       0.10351051935954943        0.00000000    
 -0.20021472385169123       0.10505535974880312        0.00000000    
 -0.25193741492433652       0.10637387048719472        0.00000000    
 -0.30301963162864981       0.10888331060012828        0.00000000    
 -0.35664995091414514       0.11104512177729746        0.00000000    
 -0.40911915851281311       0.11489774578128396        0.00000000    
 -0.46543367494301385       0.11819838282031028        0.00000000    
 -0.51967228950201472       0.12416459028310717        0.00000000    
 -0.57957615637033677       0.12920913225240668        0.00000000    
 -0.63564053509210050       0.13881459096132651        0.00000000    
 -0.69994668133392623       0.14660992678739646        0.00000000    
 -0.75648285429988638       0.16243209422400359        0.00000000    
 -0.82439394224711393       0.17320114369571896        0.00000000    
 -0.87399854274756394       0.19589625950489803        0.00000000    
 -0.93743936308994347       0.19740689400918676        0.00000000    
 -0.95153692702957549       0.18931729524076352        0.00000000    
  -1.0226572541494128        8.6294399333182989E-002   0.00000000    
  -1.0011624056277380      -0.26469589134978294        0.00000000    
 -0.71428913209742384      -0.49822686633735058        0.00000000    
 -0.52457366731501887      -0.50188709741031057        0.00000000    
 -0.35162317988396868      -0.52198063127368421        0.00000000    
 -0.17547995141820119      -0.51972102745639470        0.00000000    
  -3.1634896761303693E-007 -0.52183149253891037        0.00000000    
  0.17547932463424984      -0.51972106223560577        0.00000000    
  0.35162257049081952      -0.52198070165004018        0.00000000    
  0.52457308634759758      -0.50188719834075324        0.00000000    
  0.71428859427964653      -0.49822700232710004        0.00000000    
   1.0011619482748273      -0.26469600805617099        0.00000000    
   1.0226568312300410        8.6294345651663565E-002   0.00000000    
  0.95153651646937309       0.18931726323388634        0.00000000    
  0.93743897889392580       0.19740686423654630        0.00000000    
  0.87399817663557033       0.19589623041577828        0.00000000    
  0.82439359850578464       0.17320110983231182        0.00000000    
  0.75648252998277477       0.16243205766968985        0.00000000    
  0.69994637944273697       0.14660988619689108        0.00000000    
  0.63564025425153892       0.13881454854839484        0.00000000    
  0.57957589837857237       0.12920908804849826        0.00000000    
  0.51967205359975743       0.12416454499226881        0.00000000    
  0.46543346284869619       0.11819833617226631        0.00000000    
  0.40911896951066240       0.11489769866452405        0.00000000    
  0.35664978570008760       0.11104507456431317        0.00000000    
  0.30301948978386151       0.10888326337623946        0.00000000    
  0.25193729680556981       0.10637382294143279        0.00000000    
  0.20021462927684150       0.10505531234268005        0.00000000    
  0.15005334974691645       0.10351047178076567        0.00000000    
   9.9572085909862704E-002  0.10290623554380911        0.00000000    
   4.9834481834481012E-002  0.10214084763653980        0.00000000    
   0.0000000000000000       0.10221113762799898        0.00000000    
   0.0000000000000000       0.15040456020774134        0.00000000    
  -4.7194127360520186E-002  0.15097757843408499        0.00000000    
  -9.4668857419981461E-002  0.15128338281015838        0.00000000    
 -0.14184933413057960       0.15279660894607902        0.00000000    
 -0.18988100509037495       0.15396366856043031        0.00000000    
 -0.23723392556921052       0.15654259748327984        0.00000000    
 -0.28603195001232362       0.15859624704025765        0.00000000    
 -0.33354777504880062       0.16247975219762928        0.00000000    
 -0.38311648779738661       0.16550245511109773        0.00000000    
 -0.43034456198458482       0.17113768399633658        0.00000000    
 -0.48015474014814852       0.17527549688733196        0.00000000    
 -0.52559998948099185       0.18344875785422649        0.00000000    
 -0.57370184417149461       0.18874260727431197        0.00000000    
 -0.61319421286180864       0.20048183580593726        0.00000000    
 -0.65365358790901751       0.20555713156478356        0.00000000    
 -0.67565583230586357       0.21999084104895109        0.00000000    
 -0.69140405679443317       0.21446076915123777        0.00000000    
 -0.66385520542738352       0.21473574458311862        0.00000000    
 -0.61656126024222613       0.13879341893746061        0.00000000    
 -0.43497188356978284        2.6350603037130410E-002   0.00000000    
 -0.13386519471205877      -0.52735233974397677        0.00000000    
  -4.8909384907900255E-002 -0.60739843220468859        0.00000000    
  -2.9961539488707938E-002 -0.60137777764032119        0.00000000    
  -1.3651869949185670E-002 -0.61174909204751104        0.00000000    
  -7.1563163350649456E-003 -0.61259035513722393        0.00000000    
  -2.9297441403442938E-007 -0.61159684409717807        0.00000000    
   7.1557307323965851E-003 -0.61259039617658362        0.00000000    
   1.3651284590857885E-002 -0.61174917379887273        0.00000000    
   2.9960956810630171E-002 -0.60137789830175636        0.00000000    
   4.8908805739789243E-002 -0.60739859512308025        0.00000000    
  0.13386463248152045      -0.52735252692419821        0.00000000    
  0.43497138852578204        2.6350518209368817E-002   0.00000000    
  0.61656081747543923       0.13879335344046032        0.00000000    
  0.66385479340176390       0.21473569119525970        0.00000000    
  0.69140367654901402       0.21446071381312881        0.00000000    
  0.67565547788129654       0.21999078524303017        0.00000000    
  0.65365325962963039       0.20555707138360160        0.00000000    
  0.61319390765605586       0.20048177334275677        0.00000000    
  0.57370156310612752       0.18874254154305781        0.00000000    
  0.52559973141435423       0.18344869112112755        0.00000000    
  0.48015450611383137       0.17527542800387064        0.00000000    
  0.43034435109544966       0.17113761398780775        0.00000000    
  0.38311630071421854       0.16550238445670243        0.00000000    
  0.33354761117186404       0.16247968152796879        0.00000000    
  0.28603180993721733       0.15859617610195906        0.00000000    
  0.23723380887234738       0.15654252654767584        0.00000000    
  0.18988091183591102       0.15396359755784594        0.00000000    
  0.14184926414141316       0.15279653792253772        0.00000000    
   9.4668810779160964E-002  0.15128331181958876        0.00000000    
   4.7194103945914175E-002  0.15097750743667185        0.00000000    
   0.0000000000000000       0.15040448912290738        0.00000000    
   0.0000000000000000       0.19635600041916865        0.00000000    
  -4.3922786351955199E-002  0.19614441596983784        0.00000000    
  -8.7650790530337724E-002  0.19732064364993288        0.00000000    
 -0.13172082764975809       0.19801122526405071        0.00000000    
 -0.17515029258660855       0.20021155179780192        0.00000000    
 -0.21922012443633684       0.20171882851416251        0.00000000    
 -0.26201078882969353       0.20501006741902458        0.00000000    
 -0.30561082215093849       0.20718314989757580        0.00000000    
 -0.34687480163208245       0.21163311045546621        0.00000000    
 -0.38877910702968987       0.21414076465434839        0.00000000    
 -0.42642926558621513       0.21973411123518938        0.00000000    
 -0.46368085832850414       0.22168833720163650        0.00000000    
 -0.49294805712975370       0.22787343633205209        0.00000000    
 -0.51854384341891968       0.22644050643753466        0.00000000    
 -0.52851647741322294       0.23003182086989421        0.00000000    
 -0.52596073768839890       0.21496399137204758        0.00000000    
 -0.49199479116905298       0.20127124466080970        0.00000000    
 -0.42432185661926536       0.13270480589610351        0.00000000    
 -0.29513134931955842        4.4341260606999479E-002   0.00000000    
  -8.5832654510986428E-002 -0.27008399437677966        0.00000000    
  -9.5076195777059752E-003 -0.60834833038800795        0.00000000    
  -6.9216337700335855E-003 -0.61394420372578584        0.00000000    
  -5.4077725446363845E-003 -0.61529367435549220        0.00000000    
  -3.5456949240476789E-003 -0.61600492476397428        0.00000000    
  -1.8266930956588553E-003 -0.61654906552452249        0.00000000    
  -2.7256463645317441E-007 -0.61662056057446291        0.00000000    
   1.8261479807756031E-003 -0.61654910692443154        0.00000000    
   3.5451502889002969E-003 -0.61600500687886239        0.00000000    
   5.4072277406641564E-003 -0.61529379716482602        0.00000000    
   6.9210888533536002E-003 -0.61394436789353712        0.00000000    
   9.5070755170442740E-003 -0.60834853411246170        0.00000000    
   8.5832129617214037E-002 -0.27008414901369937        0.00000000    
  0.29513087795559029        4.4341159112154305E-002   0.00000000    
  0.42432142907460357       0.13270471394563949        0.00000000    
  0.49199439879495072       0.20127116093455941        0.00000000    
  0.52596037733629653       0.21496390611143398        0.00000000    
  0.52851614507823730       0.23003173598112209        0.00000000    
  0.51854353806532383       0.22644041862693662        0.00000000    
  0.49294777637406584       0.22787334720993588        0.00000000    
  0.46368060257572463       0.22168824585777691        0.00000000    
  0.42642903372123192       0.21973401904238546        0.00000000    
  0.38877889914118186       0.21414067083351995        0.00000000    
  0.34687461688202537       0.21163301666896553        0.00000000    
  0.30561066102931966       0.20718305552536453        0.00000000    
  0.26201065083185349       0.20500997325768044        0.00000000    
  0.21922000974011577       0.20171873412175492        0.00000000    
  0.17515020103998902       0.20021145766003298        0.00000000    
  0.13172075906111419       0.19801113115243418        0.00000000    
   8.7650744715973922E-002  0.19732054962482498        0.00000000    
   4.3922763508905456E-002  0.19614432180944705        0.00000000    
   0.0000000000000000       0.19635590623966914        0.00000000    
   0.0000000000000000       0.23773132363981261        0.00000000    
  -3.9783270295210039E-002  0.23847645234446355        0.00000000    
  -7.9623479095441901E-002  0.23855812276273289        0.00000000    
 -0.11895194750246436       0.24017355454745781        0.00000000    
 -0.15840552945975694       0.24093357091086470        0.00000000    
 -0.19669888117813919       0.24336129525977215        0.00000000    
 -0.23502010544489244       0.24448078916866953        0.00000000    
 -0.27120362384692759       0.24749728107864813        0.00000000    
 -0.30692792060784480       0.24830855287359596        0.00000000    
 -0.33887525859062950       0.25131826524058443        0.00000000    
 -0.36900896179338538       0.25034176626081250        0.00000000    
 -0.39244198577085648       0.25176659652160299        0.00000000    
 -0.41080543842547607       0.24542711753568980        0.00000000    
 -0.41715090671030680       0.24082937543139257        0.00000000    
 -0.41117412287298760       0.21964008495602291        0.00000000    
 -0.38419278850168720       0.19581994839775796        0.00000000    
 -0.33040683072357807       0.13266465988267334        0.00000000    
 -0.24707234738829525        5.0305275440111916E-002   0.00000000    
 -0.11490908742691633      -0.13461169931226447        0.00000000    
  -3.8349122508696390E-002 -0.37698834316387358        0.00000000    
  -4.6658410311158482E-003 -0.61145140192838299        0.00000000    
  -3.4838022183081721E-003 -0.61460915585829168        0.00000000    
  -3.0290382016201433E-003 -0.61659734589004356        0.00000000    
  -2.1647126814383398E-003 -0.61742765480530681        0.00000000    
  -1.0752937220605363E-003 -0.61793475470224202        0.00000000    
  -2.5182130962439237E-007 -0.61813633220744180        0.00000000    
   1.0747899974394457E-003 -0.61793479603453871        0.00000000    
   2.1642085984847413E-003 -0.61742773710921051        0.00000000    
   3.0285344955101111E-003 -0.61659746871838006        0.00000000    
   3.4832984196309933E-003 -0.61460931980176536        0.00000000    
   4.6653369420954077E-003 -0.61145160644278973        0.00000000    
   3.8348627980081477E-002 -0.37698852573811598        0.00000000    
  0.11490861760725730      -0.13461185110851262        0.00000000    
  0.24707191873347259        5.0305148806926797E-002   0.00000000    
  0.33040643762519467       0.13266454011216672        0.00000000    
  0.38419242807937098       0.19581983448334814        0.00000000    
  0.41117379209144972       0.21963997106316974        0.00000000    
  0.41715060323590464       0.24082926233636423        0.00000000    
  0.41080516144832147       0.24542700260286460        0.00000000    
  0.39244173363882046       0.25176648114043892        0.00000000    
  0.36900873412540719       0.25034164975347351        0.00000000    
  0.33887505417931957       0.25131814850116102        0.00000000    
  0.30692773971479304       0.24830843534899499        0.00000000    
  0.27120346595814349       0.24749716381184386        0.00000000    
  0.23501997052300780       0.24448067181125366        0.00000000    
  0.19669876890547108       0.24336117811261329        0.00000000    
  0.15840543994681311       0.24093345361853413        0.00000000    
  0.11895188056417649       0.24017343805778404        0.00000000    
   7.9623434525064429E-002  0.23855800597350429        0.00000000    
   3.9783248023258548E-002  0.23847633567846577        0.00000000    
   0.0000000000000000       0.23773120685093124        0.00000000    
   0.0000000000000000       0.27586290317982892        0.00000000    
  -3.5279541829603897E-002  0.27540892661792193        0.00000000    
  -7.0264944679234068E-002  0.27645250207050542        0.00000000    
 -0.10511964303319229       0.27646358298481777        0.00000000    
 -0.13902457496592763       0.27800329811483954        0.00000000    
 -0.17253150034078354       0.27809308490677243        0.00000000    
 -0.20420873882768784       0.27974870345439057        0.00000000    
 -0.23488182399497681       0.27908720828441014        0.00000000    
 -0.26239066233544933       0.27995300103214510        0.00000000    
 -0.28758539105775255       0.27681711915496071        0.00000000    
 -0.30746075092982000       0.27485321455386791        0.00000000    
 -0.32232565385191431       0.26555430713287648        0.00000000    
 -0.32838797382558188       0.25606641772423611        0.00000000    
 -0.32421110485416654       0.23235990249244282        0.00000000    
 -0.30630704154032129       0.20422994925768098        0.00000000    
 -0.26933428300909451       0.14727721528335536        0.00000000    
 -0.21641912329227170        7.4507519061489461E-002   0.00000000    
 -0.13582810685058364       -5.5461859120926514E-002   0.00000000    
  -7.3777360194589928E-002 -0.22305730765500228        0.00000000    
  -1.6626862525013653E-002 -0.42225195273640509        0.00000000    
  -3.1497118461312032E-003 -0.61334693861069367        0.00000000    
  -1.8963160427988748E-003 -0.61514905312399337        0.00000000    
  -1.3714188181322235E-003 -0.61703710875165219        0.00000000    
  -1.0463301618904449E-003 -0.61817730478933841        0.00000000    
  -5.6036701439606126E-004 -0.61876048543027717        0.00000000    
  -2.3122316649949959E-007 -0.61894577775431092        0.00000000    
   5.5990444963800441E-004 -0.61876052656214697        0.00000000    
   1.0458675289396621E-003 -0.61817738686714385        0.00000000    
   1.3709556950128152E-003 -0.61703723169276248        0.00000000    
   1.8958528027601641E-003 -0.61514921674520717        0.00000000    
   3.1492489485896134E-003 -0.61334714349951414        0.00000000    
   1.6626405186280582E-002 -0.42225215005541489        0.00000000    
   7.3776921453941685E-002 -0.22305748801350045        0.00000000    
  0.13582769242201620       -5.5462022668751491E-002   0.00000000    
  0.21641874094805003        7.4507368564854598E-002   0.00000000    
  0.26933393039442693       0.14727706968947230        0.00000000    
  0.30630671789019148       0.20422980843899971        0.00000000    
  0.32421080843957223       0.23235976178058815        0.00000000    
  0.32838770321720512       0.25606627810478616        0.00000000    
  0.32232540798186521       0.26555416685490613        0.00000000    
  0.30746052879436980       0.27485307474469184        0.00000000    
  0.28758519246353376       0.27681697891948898        0.00000000    
  0.26239048638751811       0.27995286083905957        0.00000000    
  0.23488167075632388       0.27908706797255778        0.00000000    
  0.20420860795334694       0.27974856381082375        0.00000000    
  0.17253139157761721       0.27809294528538653        0.00000000    
  0.13902448805135559       0.27800315868842967        0.00000000    
  0.10511957813101132       0.27646344404218920        0.00000000    
   7.0264901614329314E-002  0.27645236352905733        0.00000000    
   3.5279520341682080E-002  0.27540878782874728        0.00000000    
   0.0000000000000000       0.27586276475426330        0.00000000    
   0.0000000000000000       0.30808822742671488        0.00000000    
  -3.0318017409672372E-002  0.30878234250130515        0.00000000    
  -6.0475374387876570E-002  0.30822302642169097        0.00000000    
  -8.9961459901933119E-002  0.30903502351826173        0.00000000    
 -0.11889181041400110       0.30826831954493400        0.00000000    
 -0.14635290312154009       0.30879726238736022        0.00000000    
 -0.17261517710991725       0.30698521662382439        0.00000000    
 -0.19633028274233766       0.30624006630465517        0.00000000    
 -0.21769427833771637       0.30167415326936098        0.00000000    
 -0.23495807150795156       0.29755566864058958        0.00000000    
 -0.24779214030995164       0.28682526768232675        0.00000000    
 -0.25431799809725958       0.27497419416414531        0.00000000    
 -0.25283055841691776       0.25122258214501181        0.00000000    
 -0.24242507575676311       0.22262256642657646        0.00000000    
 -0.21865347255356779       0.17229278740177253        0.00000000    
 -0.18560577972366135       0.10919510901568276        0.00000000    
 -0.13481898421895203        8.8888384034575309E-003   0.00000000    
  -8.9285718404840092E-002 -0.11596626757776429        0.00000000    
  -3.7480231384039019E-002 -0.27640795702266302        0.00000000    
  -1.5592929091022389E-002 -0.44793789528924455        0.00000000    
  -2.0461609513330839E-003 -0.61468372673458416        0.00000000    
  -1.1944935693139304E-003 -0.61591732737842653        0.00000000    
  -6.6913372358325595E-004 -0.61731909061014589        0.00000000    
  -4.1192715855454111E-004 -0.61847761701545179        0.00000000    
  -2.2199866831283828E-004 -0.61913606361998119        0.00000000    
  -2.1093094807765015E-007 -0.61935212183660471        0.00000000    
   2.2157692091543738E-004 -0.61913610474792491        0.00000000    
   4.1150514902325998E-004 -0.61847769876685665        0.00000000    
   6.6871150588132045E-004 -0.61731921317931748        0.00000000    
   1.1940715404433967E-003 -0.61591749144349150        0.00000000    
   2.0457391497890444E-003 -0.61468393174937741        0.00000000    
   1.5592511836170020E-002 -0.44793810258775846        0.00000000    
   3.7479824984218930E-002 -0.27640815685474729        0.00000000    
   8.9285332420778879E-002 -0.11596645637982278        0.00000000    
  0.13481862107925130        8.8886582323720442E-003   0.00000000    
  0.18560544334085488       0.10919493660981787        0.00000000    
  0.21865316200116558       0.17229261860014905        0.00000000    
  0.24242479092837471       0.22262240073812900        0.00000000    
  0.25283029801376228       0.25122241727072031        0.00000000    
  0.25431776151273222       0.27497403058407410        0.00000000    
  0.24779192673467629       0.28682510443141523        0.00000000    
  0.23495788024830730       0.29755550599000391        0.00000000    
  0.21769410926418009       0.30167399065900774        0.00000000    
  0.19633013526339352       0.30623990410621243        0.00000000    
  0.17261505121502604       0.30698505491849615        0.00000000    
  0.14635279865401973       0.30879710128920251        0.00000000    
  0.11889172712633986       0.30826815856685508        0.00000000    
   8.9961397409122512E-002  0.30903486332007291        0.00000000    
   6.0475332812209688E-002  0.30822286638139534        0.00000000    
   3.0317996632408105E-002  0.30878218283560438        0.00000000    
   0.0000000000000000       0.30808806761250124        0.00000000    
   0.0000000000000000       0.33661689472692929        0.00000000    
  -2.5269578688600362E-002  0.33584239109823183        0.00000000    
  -5.0192689765043687E-002  0.33624456602448510        0.00000000    
  -7.4606097929942980E-002  0.33491409674967870        0.00000000    
  -9.7931129068553086E-002  0.33464574820290433        0.00000000    
 -0.12008617949835122       0.33203709504452328        0.00000000    
 -0.14026195341559997       0.33018455201635705        0.00000000    
 -0.15827157347555315       0.32476657344576387        0.00000000    
 -0.17316828044165433       0.31940946866355591        0.00000000    
 -0.18432210037108412       0.30823908150123225        0.00000000    
 -0.19096846330592107       0.29562340651039454        0.00000000    
 -0.19144925475620347       0.27318381780597334        0.00000000    
 -0.18610619570260370       0.24618358031453108        0.00000000    
 -0.17135061096750909       0.20250161232343003        0.00000000    
 -0.15115172595215398       0.14844437600159494        0.00000000    
 -0.11895314345291871        6.7798355980192307E-002   0.00000000    