 <VTKFile type="UnstructuredGrid" version="0.1" byte_order="BigEndian">
 <UnstructuredGrid>
 <Piece NumberOfPoints="        2601 " NumberOfCells="        2500 ">
 <PointData Scalars="scalars">
 <DataArray type="Float32" NumberOfComponents="3" Name="Velocity" Format="ascii">
   0.0000000000000000        0.0000000000000000        0.00000000    
  -1.4635751659740856E-002   0.0000000000000000        0.00000000    
  -2.9075199826000261E-002   0.0000000000000000        0.00000000    
  -4.3028924516595117E-002   0.0000000000000000        0.00000000    
  -5.6403557821607553E-002   0.0000000000000000        0.00000000    
  -6.8832338181155153E-002   0.0000000000000000        0.00000000    
  -8.0328663801111130E-002   0.0000000000000000        0.00000000    
  -9.0469741747015164E-002   0.0000000000000000        0.00000000    
  -9.9373811600356715E-002   0.0000000000000000        0.00000000    
 -0.10658798584744883        0.0000000000000000        0.00000000    
 -0.11232804836598524        0.0000000000000000        0.00000000    
 -0.11614013361237997        0.0000000000000000        0.00000000    
 -0.11832534717198152        0.0000000000000000        0.00000000    
 -0.11845918771627198        0.0000000000000000        0.00000000    
 -0.11691140897344303        0.0000000000000000        0.00000000    
 -0.11331611359232552        0.0000000000000000        0.00000000    
 -0.10809110270435454        0.0000000000000000        0.00000000    
 -0.10095475045483931        0.0000000000000000        0.00000000    
  -9.2349032547707696E-002   0.0000000000000000        0.00000000    
  -8.2096390552592699E-002   0.0000000000000000        0.00000000    
  -7.0636723289720871E-002   0.0000000000000000        0.00000000    
  -5.7908662302271471E-002   0.0000000000000000        0.00000000    
  -4.4322639194275849E-002   0.0000000000000000        0.00000000    
  -2.9936892353409308E-002   0.0000000000000000        0.00000000    
  -1.5105480776112982E-002   0.0000000000000000        0.00000000    
  -8.4784998194105868E-007   0.0000000000000000        0.00000000    
   1.5103789103644502E-002   0.0000000000000000        0.00000000    
   2.9935210800818290E-002   0.0000000000000000        0.00000000    
   4.4320975711446858E-002   0.0000000000000000        0.00000000    
   5.7907022794168962E-002   0.0000000000000000        0.00000000    
   7.0635115486234842E-002   0.0000000000000000        0.00000000    
   8.2094820115504744E-002   0.0000000000000000        0.00000000    
   9.2347506771639915E-002   0.0000000000000000        0.00000000    
  0.10095327450922710        0.0000000000000000        0.00000000    
  0.10808968332753049        0.0000000000000000        0.00000000    
  0.11331475543367553        0.0000000000000000        0.00000000    
  0.11691011816927831        0.0000000000000000        0.00000000    
  0.11845796823709834        0.0000000000000000        0.00000000    
  0.11832420441274275        0.0000000000000000        0.00000000    
  0.11613907113259776        0.0000000000000000        0.00000000    
  0.11232707062182792        0.0000000000000000        0.00000000    
  0.10658709568072035        0.0000000000000000        0.00000000    
   9.9373012744028724E-002   0.0000000000000000        0.00000000    
   9.0469036482271878E-002   0.0000000000000000        0.00000000    
   8.0328055024114817E-002   0.0000000000000000        0.00000000    
   6.8831827571844792E-002   0.0000000000000000        0.00000000    
   5.6403147455092478E-002   0.0000000000000000        0.00000000    
   4.3028615486187249E-002   0.0000000000000000        0.00000000    
   2.9074993311013580E-002   0.0000000000000000        0.00000000    
   1.4635648202802240E-002   0.0000000000000000        0.00000000    
   0.0000000000000000        0.0000000000000000        0.00000000    
   0.0000000000000000        1.4733486145272135E-002   0.00000000    
  -1.4706911981707812E-002   1.4610634390097009E-002   0.00000000    
  -2.9168488486619966E-002   1.4291847158205671E-002   0.00000000    
  -4.3238926799941693E-002   1.3733772674573225E-002   0.00000000    
  -5.6586177467376653E-002   1.2989568077307362E-002   0.00000000    
  -6.9170734415638618E-002   1.2025225916198791E-002   0.00000000    
  -8.0592508362229073E-002   1.0894330256760544E-002   0.00000000    
  -9.0919128126663251E-002   9.5748239262680394E-003   0.00000000    
  -9.9706348711799564E-002   8.1179228802942503E-003   0.00000000    
 -0.10712418018030180        6.5155390375932756E-003   0.00000000    
 -0.11271214165743401        4.8139410365423355E-003   0.00000000    
 -0.11673271086776187        3.0201693107605640E-003   0.00000000    
 -0.11873940882554837        1.1731979615644107E-003   0.00000000    
 -0.11907257327893531       -7.0473740741967220E-004   0.00000000    
 -0.11733009928401654       -2.5840599129882840E-003   0.00000000    
 -0.11391137375033929       -4.4285057811170037E-003   0.00000000    
 -0.10848670882354393       -6.2197149467818156E-003   0.00000000    
 -0.10149209680907070       -7.9097944126388826E-003   0.00000000    
  -9.2693518905866634E-002  -9.4930466129593358E-003   0.00000000    
  -8.2538246978411944E-002  -1.0913412680990510E-002   0.00000000    
  -7.0904267862123699E-002  -1.2178779167417773E-002   0.00000000    
  -5.8222975153376745E-002  -1.3229120117666830E-002   0.00000000    
  -4.4492311962334011E-002  -1.4086111839521367E-002   0.00000000    
  -3.0100236649469172E-002  -1.4690256047530730E-002   0.00000000    
  -1.5163621474452689E-002  -1.5076316473982838E-002   0.00000000    
  -8.4760442420656571E-007  -1.5189636117013246E-002   0.00000000    
   1.5161929316353850E-002  -1.5076323552228587E-002   0.00000000    
   3.0098555578215561E-002  -1.4690270176009629E-002   0.00000000    
   4.4490648005597280E-002  -1.4086132895324970E-002   0.00000000    
   5.8221336162339876E-002  -1.3229148002294537E-002   0.00000000    
   7.0902659607313637E-002  -1.2178813723639659E-002   0.00000000    
   8.2536677017343477E-002  -1.0913453784915806E-002   0.00000000    
   9.2691992729986253E-002  -9.4930939552512437E-003   0.00000000    
  0.10149062144815767       -7.9098477157798462E-003   0.00000000    
  0.10848528917823495       -6.2197739280445852E-003   0.00000000    
  0.11391001625294818       -4.4285701659586467E-003   0.00000000    
  0.11732880820947929       -2.5841293054995533E-003   0.00000000    
  0.11907135440980528       -7.0481154532128624E-004   0.00000000    
  0.11873826591993505        1.1731194159987069E-003   0.00000000    
  0.11673164883977022        3.0200866992313867E-003   0.00000000    
  0.11271116375785485        4.8138547840165941E-003   0.00000000    
  0.10712329051034475        6.5154494830498254E-003   0.00000000    
   9.9705549786511916E-002   8.1178303797487372E-003   0.00000000    
   9.0918423260444206E-002   9.5747287761405904E-003   0.00000000    
   8.0591899547057241E-002   1.0894232868073546E-002   0.00000000    
   6.9170224134050176E-002   1.2025126603595717E-002   0.00000000    
   5.6585767110169660E-002   1.2989467222712487E-002   0.00000000    
   4.3238617968147521E-002   1.3733670667626732E-002   0.00000000    
   2.9168281961698055E-002   1.4291744342836943E-002   0.00000000    
   1.4706808581128038E-002   1.4610531023053631E-002   0.00000000    
   0.0000000000000000        1.4733382654775137E-002   0.00000000    
   0.0000000000000000        2.9560835076445979E-002   0.00000000    
  -1.4871596873687973E-002   2.9363189359103901E-002   0.00000000    
  -2.9544945410312690E-002   2.8675612243333537E-002   0.00000000    
  -4.3725626876206514E-002   2.7602522362370128E-002   0.00000000    
  -5.7321274184911293E-002   2.6065111264689814E-002   0.00000000    
  -6.9957158459513669E-002   2.4171518813897820E-002   0.00000000    
  -8.1650376536366337E-002   2.1864424093157808E-002   0.00000000    
  -9.1967523590853403E-002   1.9249891566592004E-002   0.00000000    
 -0.10103290127903967        1.6296847971656429E-002   0.00000000    
 -0.10838095226325234        1.3103890791252617E-002   0.00000000    
 -0.11423550938269000        9.6695020364629802E-003   0.00000000    
 -0.11812881857846821        6.0798807983862869E-003   0.00000000    
 -0.12037163067884084        2.3643903567575064E-003   0.00000000    
 -0.12052537679398879       -1.4076254900656938E-003   0.00000000    
 -0.11897065194161185       -5.1769771959524801E-003   0.00000000    
 -0.11532845212955314       -8.8951204429459415E-003   0.00000000    
 -0.11002819006787326       -1.2476634123810714E-002   0.00000000    
 -0.10277720052898447       -1.5897083714949242E-002   0.00000000    
  -9.4029355083514635E-002  -1.9050787809522147E-002   0.00000000    
  -8.3599049047590551E-002  -2.1939856663314102E-002   0.00000000    
  -7.1937783465419208E-002  -2.4446187281612106E-002   0.00000000    
  -5.8979755810199319E-002  -2.6599639815903721E-002   0.00000000    
  -4.5146020263961806E-002  -2.8278598455908702E-002   0.00000000    
  -3.0494230822054848E-002  -2.9540241795088761E-002   0.00000000    
  -1.5387320323546736E-002  -3.0268464075785345E-002   0.00000000    
  -8.4784998590951053E-007  -3.0545342545519414E-002   0.00000000    
   1.5385628671067299E-002  -3.0268478252273547E-002   0.00000000    
   3.0492549296183849E-002  -2.9540270038781170E-002   0.00000000    
   4.5144356841273672E-002  -2.8278640614201843E-002   0.00000000    
   5.8978116443072492E-002  -2.6599695619308316E-002   0.00000000    
   7.1936175918495507E-002  -2.4446256475493033E-002   0.00000000    
   8.3597478906945383E-002  -2.1939938829608312E-002   0.00000000    
   9.4027829616544129E-002  -1.9050882548316557E-002   0.00000000    
  0.10277572499858768       -1.5897190373139108E-002   0.00000000    
  0.11002677126808620       -1.2476752196249590E-002   0.00000000    
  0.11532709461710551       -8.8952491718814562E-003   0.00000000    
  0.11896936182165221       -5.1771160597253452E-003   0.00000000    
  0.12052415813107299       -1.4077738191716662E-003   0.00000000    
  0.12037048878666440        2.3642332681245689E-003   0.00000000    
  0.11812775689426221        6.0797156443153730E-003   0.00000000    
  0.11423453239637973        9.6693295001532963E-003   0.00000000    
  0.10838006290675491        1.3103711661039677E-002   0.00000000    
  0.10103210327670699        1.6296662947927316E-002   0.00000000    
   9.1966819092787130E-002   1.9249701376293296E-002   0.00000000    
   8.1649768435050937E-002   2.1864229296823752E-002   0.00000000    
   6.9956648470960683E-002   2.4171320262575031E-002   0.00000000    
   5.7320864326982864E-002   2.6064909593787492E-002   0.00000000    
   4.3725318208353056E-002   2.7602318456221783E-002   0.00000000    
   2.9544739156864161E-002   2.8675406605867669E-002   0.00000000    
   1.4871493538841834E-002   2.9362982771191121E-002   0.00000000    
   0.0000000000000000        2.9560628071370412E-002   0.00000000    
   0.0000000000000000        4.4674035360345393E-002   0.00000000    
  -1.5179101882054050E-002   4.4302021036159760E-002   0.00000000    
  -3.0105963804931073E-002   4.3338324228654385E-002   0.00000000    
  -4.4633962714439049E-002   4.1649823874846510E-002   0.00000000    
  -5.8418014302599214E-002   3.9398841764475889E-002   0.00000000    
  -7.1423494599607160E-002   3.6480485844926053E-002   0.00000000    
  -8.3231541590648189E-002   3.3058055077648259E-002   0.00000000    
  -9.3919762319540759E-002   2.9062961090502847E-002   0.00000000    
 -0.10302030699365813        2.4651033519126800E-002   0.00000000    
 -0.11071752939738314        1.9796311065168951E-002   0.00000000    
 -0.11652395059815868        1.4639392496357513E-002   0.00000000    
 -0.12071997863620623        9.2006596740354645E-003   0.00000000    
 -0.12283065595865580        3.5984329826900373E-003   0.00000000    
 -0.12321704401727271       -2.1002021923603419E-003   0.00000000    
 -0.12144931277197367       -7.8055248663211089E-003   0.00000000    
 -0.11794954750225885       -1.3407206454638693E-002   0.00000000    
 -0.11236340175841571       -1.8849624543089992E-002   0.00000000    
 -0.10515064095465684       -2.3986512564817056E-002   0.00000000    
  -9.6057752830867746E-002  -2.8800761478978455E-002   0.00000000    
  -8.5555802827640318E-002  -3.3120808240494251E-002   0.00000000    
  -7.3510044492162432E-002  -3.6970928849535858E-002   0.00000000    
  -6.0374419602667775E-002  -4.0167220217174546E-002   0.00000000    
  -4.6141777005670355E-002  -4.2776065636877372E-002   0.00000000    
  -3.1219903527381864E-002  -4.4615107097002560E-002   0.00000000    
  -1.5728294327009795E-002  -4.5790788043090939E-002   0.00000000    
  -8.4757456720873709E-007  -4.6135607416716427E-002   0.00000000    
   1.5726602208098225E-002  -4.5790809297295475E-002   0.00000000    
   3.1218222550222528E-002  -4.4615149531340999E-002   0.00000000    
   4.6140113237373187E-002  -4.2776128916573466E-002   0.00000000    
   6.0372780960339108E-002  -4.0167304080710807E-002   0.00000000    
   7.3508436772303384E-002  -3.6971032725964470E-002   0.00000000    
   8.5554233608368904E-002  -3.3120931631114257E-002   0.00000000    
   9.6056227514475012E-002  -2.8800903570009719E-002   0.00000000    
  0.10514916655351145       -2.3986672722600969E-002   0.00000000    
  0.11236198320251545       -1.8849801691801567E-002   0.00000000    
  0.11794819131411438       -1.3407399762409013E-002   0.00000000    
  0.12144802329060796       -7.8057332505400787E-003   0.00000000    
  0.12321582684114149       -2.1004247633131389E-003   0.00000000    
  0.12282951480403236        3.5981973436406203E-003   0.00000000    
  0.12071891845701414        9.2004118869626686E-003   0.00000000    
  0.11652297453164578        1.4639133782456851E-002   0.00000000    
  0.11071664150287044        1.9796042310715713E-002   0.00000000    
  0.10301950979411205        2.4650756070487181E-002   0.00000000    
   9.3919059154980888E-002   2.9062675785842294E-002   0.00000000    
   8.3230934320266806E-002   3.3057763104726003E-002   0.00000000    
   7.1422985597489358E-002   3.6480188089144577E-002   0.00000000    
   5.8417604970794332E-002   3.9398539497073275E-002   0.00000000    
   4.4633654669359923E-002   4.1649518088376233E-002   0.00000000    
   3.0105757790827001E-002   4.3338016026108407E-002   0.00000000    
   1.5178998753147793E-002   4.4301711209504775E-002   0.00000000    
   0.0000000000000000        4.4673725130237381E-002   0.00000000    
   0.0000000000000000        6.0066741994367512E-002   0.00000000    
  -1.5577974198827921E-002   5.9667661889503731E-002   0.00000000    
  -3.0952094208714934E-002   5.8274936665060562E-002   0.00000000    
  -4.5812980452000010E-002   5.6103367957755029E-002   0.00000000    
  -6.0071644909383361E-002   5.2989284948068989E-002   0.00000000    
  -7.3329261667099868E-002   4.9154410955199512E-002   0.00000000    
  -8.5614500491493162E-002   4.4478686788974361E-002   0.00000000    
  -9.6461673362463710E-002   3.9178994010380636E-002   0.00000000    
 -0.10601380113156554        3.3188943767372824E-002   0.00000000    
 -0.11376662069514677        2.6709713539092132E-002   0.00000000    
 -0.11996866467097909        1.9735725592560160E-002   0.00000000    
 -0.12410960871683445        1.2442569087516607E-002   0.00000000    
 -0.12652968769378853        4.8885499002966236E-003   0.00000000    
 -0.12674709514260174       -2.7852535387321146E-003   0.00000000    
 -0.12517548767198078       -1.0458542574406518E-002   0.00000000    
 -0.12139548911555820       -1.8032682881399434E-002   0.00000000    
 -0.11587188002706011       -2.5332633642587764E-002   0.00000000    
 -0.10827793385041577       -3.2308941113774969E-002   0.00000000    
  -9.9103752741730319E-002  -3.8744133173994180E-002   0.00000000    
  -8.8138872111848218E-002  -4.4642998169311034E-002   0.00000000    
  -7.5870155701929690E-002  -4.9761944936298735E-002   0.00000000    
  -6.2218074011150266E-002  -5.4162641965809673E-002   0.00000000    
  -4.7636102461095411E-002  -5.7593989487628762E-002   0.00000000    
  -3.2180032635934046E-002  -6.0173857992957672E-002   0.00000000    
  -1.6239921940037896E-002  -6.1662488588638112E-002   0.00000000    
  -8.4777450563535328E-007  -6.2229159331351064E-002   0.00000000    
   1.6238230496882746E-002  -6.1662516978921791E-002   0.00000000    
   3.2178351402057964E-002  -6.0173914642250879E-002   0.00000000    
   4.7634439512358386E-002  -5.7594074046374399E-002   0.00000000    
   6.2216435299400887E-002  -5.4162753913258359E-002   0.00000000    
   7.5868549029862106E-002  -4.9762083690972146E-002   0.00000000    
   8.8137303080443485E-002  -4.4643162822945059E-002   0.00000000    
   9.9102228703737041E-002  -3.8744322898310181E-002   0.00000000    
  0.10827646004157264       -3.2309154782682425E-002   0.00000000    
  0.11587046322301595       -2.5332870130231028E-002   0.00000000    
  0.12139413384788936       -1.8032940754382491E-002   0.00000000    
  0.12517419997521856       -1.0458820671111637E-002   0.00000000    
  0.12674587909828394       -2.7855503548932232E-003   0.00000000    
  0.12652854860302060        4.8882355313821894E-003   0.00000000    
  0.12410854994300018        1.2442238737926409E-002   0.00000000    
  0.11996769066945881        1.9735380556166127E-002   0.00000000    
  0.11376573422004690        2.6709355408692674E-002   0.00000000    
  0.10601300587872815        3.3188573777431125E-002   0.00000000    
   9.6460971455079633E-002   3.9178613866562198E-002   0.00000000    
   8.5613894761566986E-002   4.4478297583553129E-002   0.00000000    
   7.3328753765583982E-002   4.9154014335221617E-002   0.00000000    
   6.0071236761214661E-002   5.2988882121181219E-002   0.00000000    
   4.5812673051612192E-002   5.6102960696241350E-002   0.00000000    
   3.0951888812214376E-002   5.8274525902673541E-002   0.00000000    
   1.5577871291764642E-002   5.9667249248032218E-002   0.00000000    
   0.0000000000000000        6.0066328543083997E-002   0.00000000    
   0.0000000000000000        7.6032957755939642E-002   0.00000000    
  -1.6120916022415176E-002   7.5401545952047150E-002   0.00000000    
  -3.1976065947158655E-002   7.3771532152123356E-002   0.00000000    
  -4.7417812349797660E-002   7.0910614614079645E-002   0.00000000    
  -6.2074855549872507E-002   6.7098955482041103E-002   0.00000000    
  -7.5923211419590464E-002   6.2151922353431630E-002   0.00000000    
  -8.8505835286314380E-002   5.6350247442566830E-002   0.00000000    
  -9.9921322079795025E-002   4.9571302056904631E-002   0.00000000    
 -0.10965346068623262        4.2082111204341507E-002   0.00000000    
 -0.11791639703860403        3.3833510723558384E-002   0.00000000    
 -0.12416702957418928        2.5065813708334841E-002   0.00000000    
 -0.12872274160876468        1.5810345385595122E-002   0.00000000    
 -0.13104963595610872        6.2689553484592420E-003   0.00000000    
 -0.13155131450177548       -3.4453650506919755E-003   0.00000000    
 -0.12974035455726260       -1.3179790448076883E-002   0.00000000    
 -0.12608530987837510       -2.2745270688495717E-002   0.00000000    
 -0.12018046448379541       -3.2047292682471688E-002   0.00000000    
 -0.11253420515788697       -4.0833280379868997E-002   0.00000000    
 -0.10285232226166156       -4.9074650645604498E-002   0.00000000    
  -9.1654570221617354E-002  -5.6473906476213323E-002   0.00000000    
  -7.8779564948002090E-002  -6.3073551365508906E-002   0.00000000    
  -6.4727466419600144E-002  -6.8554009095962820E-002   0.00000000    
  -4.9480400182409442E-002  -7.3030453446178437E-002   0.00000000    
  -3.3486889407382724E-002  -7.6185768116584368E-002   0.00000000    
  -1.6871756610932140E-002  -7.8204615419583845E-002   0.00000000    
  -8.4731414402721737E-007  -7.8795809486487081E-002   0.00000000    
   1.6870065048990180E-002  -7.8204650982071189E-002   0.00000000    
   3.3485209146293243E-002  -7.6185839103806899E-002   0.00000000    
   4.9478737291969374E-002  -7.3030559322787597E-002   0.00000000    
   6.4725828906955010E-002  -6.8554149340335255E-002   0.00000000    
   7.8777958605023721E-002  -6.3073725032614283E-002   0.00000000    
   9.1653002715186338E-002  -5.6474112694632865E-002   0.00000000    
  0.10285079906936272       -4.9074888112688564E-002   0.00000000    
  0.11253273335651266       -4.0833547926092936E-002   0.00000000    
  0.12017904890821270       -3.2047588523401407E-002   0.00000000    
  0.12608395694683328       -2.2745593388621029E-002   0.00000000    
  0.12973906857818843       -1.3180138241028896E-002   0.00000000    
  0.13155010109180484       -3.4457363921688803E-003   0.00000000    
  0.13104849877973740        6.2685623176945522E-003   0.00000000    
  0.12872168555559410        1.5809932257703954E-002   0.00000000    
  0.12416605764457156        2.5065382554356291E-002   0.00000000    
  0.11791551326456459        3.3833063028726212E-002   0.00000000    
  0.10965266740386367        4.2081649064879344E-002   0.00000000    
   9.9920622539389867E-002   4.9570826975169416E-002   0.00000000    
   8.8505231339319757E-002   5.6349761404172548E-002   0.00000000    
   7.5922705363657500E-002   6.2151426846933554E-002   0.00000000    
   6.2074448627160585E-002   6.7098452655083102E-002   0.00000000    
   4.7417506178578053E-002   7.0910105853341010E-002   0.00000000    
   3.1975861210927756E-002   7.3771019450062592E-002   0.00000000    
   1.6120813531828412E-002   7.5401030515145295E-002   0.00000000    
   0.0000000000000000        7.6032441702413536E-002   0.00000000    
   0.0000000000000000        9.2457203581529451E-002   0.00000000    
  -1.6750223691174841E-002   9.1849587698944093E-002   0.00000000    
  -3.3288046835727336E-002   8.9717611263645206E-002   0.00000000    
  -4.9279302424801746E-002   8.6398685322271629E-002   0.00000000    
  -6.4641928437161045E-002   8.1631701609069338E-002   0.00000000    
  -7.8936305496127734E-002   7.5763056852777996E-002   0.00000000    
  -9.2212024894089334E-002   6.8598603577075548E-002   0.00000000    
 -0.10394810218618025        6.0475657482624276E-002   0.00000000    
 -0.11432057921392323        5.1283518455224122E-002   0.00000000    
 -0.12275833734958685        4.1333945131663268E-002   0.00000000    
 -0.12955295991161617        3.0611781058929456E-002   0.00000000    
 -0.13412009755583976        1.9388374517496747E-002   0.00000000    
 -0.13685098818969599        7.7498574451607466E-003   0.00000000    
 -0.13718822636568406       -4.0862040312494453E-003   0.00000000    
 -0.13560238506415337       -1.5934606887221793E-002   0.00000000    
 -0.13160319050382008       -2.7643547520142125E-002   0.00000000    
 -0.12571615934640185       -3.8939746978536534E-002   0.00000000    
 -0.11755455349885457       -4.9747545704537641E-002   0.00000000    
 -0.10767067443661278       -5.9725002211974285E-002   0.00000000    
  -9.5810149527626370E-002  -6.8880686683994441E-002   0.00000000    
  -8.2520646566354092E-002  -7.6830134612707338E-002   0.00000000    
  -6.7698309229513823E-002  -8.3670716853354185E-002   0.00000000    
  -5.1852515556990657E-002  -8.9005461016619047E-002   0.00000000    
  -3.5035594353060709E-002  -9.3020047893201646E-002   0.00000000    
  -1.7684523613550069E-002  -9.5335394691194814E-002   0.00000000    
  -8.4725076037157411E-007  -9.6218471369791350E-002   0.00000000    
   1.7682833283919033E-002  -9.5335437491917904E-002   0.00000000    
   3.5033914339434466E-002  -9.3020133259048773E-002   0.00000000    
   5.1850854106275789E-002  -8.9005588448167264E-002   0.00000000    
   6.7696672338806232E-002  -8.3670885480596063E-002   0.00000000    
   8.2519042145891480E-002  -7.6830343536860815E-002   0.00000000    
   9.5808583227568564E-002  -6.8880934602326901E-002   0.00000000    
  0.10766915364853188       -5.9725287805263171E-002   0.00000000    
  0.11755308331931093       -4.9747867124030003E-002   0.00000000    
  0.12571474658671353       -3.8940102591856034E-002   0.00000000    
  0.13160183975491779       -2.7643935102718710E-002   0.00000000    
  0.13560110231525843       -1.5935024750211340E-002   0.00000000    
  0.13718701556895643       -4.0866498239759417E-003   0.00000000    
  0.13684985457207863        7.7493854529200219E-003   0.00000000    
  0.13411904430260593        1.9387878863479101E-002   0.00000000    
  0.12955199144381729        3.0611263522071590E-002   0.00000000    
  0.12275745629428242        4.1333408251617805E-002   0.00000000    
  0.11431978916904838        5.1282963998855402E-002   0.00000000    
  0.10394740512383437        6.0475087993281544E-002   0.00000000    
   9.2211423534991954E-002   6.8598020649608640E-002   0.00000000    
   7.8935801369312983E-002   7.5762463111985895E-002   0.00000000    
   6.4641523470443996E-002   8.1631098723064469E-002   0.00000000    
   4.9278997508150839E-002   8.6398075818998651E-002   0.00000000    
   3.3287843126685861E-002   8.9716996661497767E-002   0.00000000    
   1.6750121640087469E-002   9.1848970258507398E-002   0.00000000    
   0.0000000000000000        9.2456584989840787E-002   0.00000000    
   0.0000000000000000       0.10974514786530676        0.00000000    
  -1.7524832927656248E-002  0.10883778612911534        0.00000000    
  -3.4764381347891747E-002  0.10650787052088329        0.00000000    
  -5.1571124797331044E-002  0.10240751106458532        0.00000000    
  -6.7534125876135692E-002   9.6949588999485803E-002   0.00000000    
  -8.2647631397982702E-002   8.9854137771048587E-002   0.00000000    
  -9.6395752593940703E-002   8.1532449108372249E-002   0.00000000    
 -0.10891123526462149        7.1794457322469155E-002   0.00000000    
 -0.11960242613673115        6.1029472089551014E-002   0.00000000    
 -0.12873101119788780        4.9155419714325785E-002   0.00000000    
 -0.13566630715211636        3.6521310205238973E-002   0.00000000    
 -0.14078402728845441        2.3164787737014820E-002   0.00000000    
 -0.14345676070143196        9.3781530637851405E-003   0.00000000    
 -0.14415471055913234       -4.6782274869853115E-003   0.00000000    
 -0.14229851240341770       -1.8783538553529423E-002   0.00000000    
 -0.13842913559735995       -3.2662103540326864E-002   0.00000000    
 -0.13205846779548674       -4.6177806044728480E-002   0.00000000    
 -0.12377053126442465       -5.8957945750825358E-002   0.00000000    
 -0.11320561676902424       -7.0962312288658944E-002   0.00000000    
 -0.10095928192601722       -8.1749153443706063E-002   0.00000000    
  -8.6827152162752691E-002  -9.1382217527311488E-002   0.00000000    
  -7.1381551059312182E-002  -9.9385489726227946E-002   0.00000000    
  -5.4587157778600424E-002 -0.10592979235055540        0.00000000    
  -3.6956357375664488E-002 -0.11054235566923640        0.00000000    
  -1.8622210226504600E-002 -0.11349722225897754        0.00000000    
  -8.4647020906175537E-007 -0.11436060146130679        0.00000000    
   1.8620520434690469E-002 -0.11349727238019616        0.00000000    
   3.6954679143864057E-002 -0.11054245559060767        0.00000000    
   5.4585497175329602E-002 -0.10592994141802534        0.00000000    
   7.1379916292638415E-002  -9.9385687114157045E-002   0.00000000    
   8.6825549157379917E-002  -9.1382461922331515E-002   0.00000000    
  0.10095771838534838       -8.1749443476288153E-002   0.00000000    
  0.11320409803506783       -7.0962646086398240E-002   0.00000000    
  0.12376906444532822       -5.8958321489274573E-002   0.00000000    
  0.13205705772696880       -4.6178221509538257E-002   0.00000000    
  0.13842778874314238       -3.2662556496512389E-002   0.00000000    
  0.14229723296420527       -1.8784026457938276E-002   0.00000000    
  0.14415350411827624       -4.6787481888312778E-003   0.00000000    
  0.14345563069463710        9.3776023674744767E-003   0.00000000    
  0.14078297850405591        2.3164209200269865E-002   0.00000000    
  0.13566534240311745        3.6520706730254059E-002   0.00000000    
  0.12873013438908412        4.9154793419698542E-002   0.00000000    
  0.11960163947073221        6.1028825894508469E-002   0.00000000    
  0.10891054189428723        7.1793793293585775E-002   0.00000000    
   9.6395154186242379E-002   8.1531770054539127E-002   0.00000000    
   8.2647130173825925E-002   8.9853445740776403E-002   0.00000000    
   6.7533722996932569E-002   9.6948886897886360E-002   0.00000000    
   5.1570821763053915E-002  0.10240680088189197        0.00000000    
   3.4764178763697980E-002  0.10650715494043970        0.00000000    
   1.7524731525587960E-002  0.10883706682687165        0.00000000    
   0.0000000000000000       0.10974442768224570        0.00000000    
   0.0000000000000000       0.12765544093468023        0.00000000    
  -1.8376545034633578E-002  0.12682989543535877        0.00000000    
  -3.6530515806480958E-002  0.12391030472584594        0.00000000    
  -5.4093452438507196E-002  0.11937578133134924        0.00000000    
  -7.0995840487679054E-002  0.11284773197381831        0.00000000    
  -8.6739692829888207E-002  0.10481437691108561        0.00000000    
 -0.10140747174346537        9.4989133884287980E-002   0.00000000    
 -0.11439765721725785        8.3844464690957091E-002   0.00000000    
 -0.12593650921567276        7.1210531007058292E-002   0.00000000    
 -0.13535430150872224        5.7521761802761438E-002   0.00000000    
 -0.14300700276711933        4.2743988291127799E-002   0.00000000    
 -0.14819997134585625        2.7253821590671339E-002   0.00000000    
 -0.15139989002425278        1.1162793772379475E-002   0.00000000    
 -0.15193577643899658       -5.2280091805574098E-003   0.00000000    
 -0.15036177913281071       -2.1662930349678530E-002   0.00000000    
 -0.14608041061209059       -3.7932434835644804E-002   0.00000000    