 <VTKFile type="UnstructuredGrid" version="0.1" byte_order="BigEndian">
 <UnstructuredGrid>
 <Piece NumberOfPoints="        2601 " NumberOfCells="        2500 ">
 <PointData Scalars="scalars">
 <DataArray type="Float32" NumberOfComponents="3" Name="Velocity" Format="ascii">
   0.0000000000000000        0.0000000000000000        0.00000000    
  -3.8336993058358679E-002   0.0000000000000000        0.00000000    
  -7.6086161108111741E-002   0.0000000000000000        0.00000000    
 -0.11285146637531195        0.0000000000000000        0.00000000    
 -0.14787597205816874        0.0000000000000000        0.00000000    
 -0.18096521918532243        0.0000000000000000        0.00000000    
 -0.21123035236494722        0.0000000000000000        0.00000000    
 -0.23867785199053093        0.0000000000000000        0.00000000    
 -0.26233886725412675        0.0000000000000000        0.00000000    
 -0.28241245269482218        0.0000000000000000        0.00000000    
 -0.29791459535037179        0.0000000000000000        0.00000000    
 -0.30922321880338460        0.0000000000000000        0.00000000    
 -0.31541256622136016        0.0000000000000000        0.00000000    
 -0.31702189233753442        0.0000000000000000        0.00000000    
 -0.31325881282911106        0.0000000000000000        0.00000000    
 -0.30480273706560834        0.0000000000000000        0.00000000    
 -0.29106264904186130        0.0000000000000000        0.00000000    
 -0.27283206460211362        0.0000000000000000        0.00000000    
 -0.24977295876006181        0.0000000000000000        0.00000000    
 -0.22275978504713700        0.0000000000000000        0.00000000    
 -0.19173513620993812        0.0000000000000000        0.00000000    
 -0.15761183146422370        0.0000000000000000        0.00000000    
 -0.12061276429949584        0.0000000000000000        0.00000000    
  -8.1636163300087411E-002   0.0000000000000000        0.00000000    
  -4.1157850001370469E-002   0.0000000000000000        0.00000000    
   2.8763276583392814E-007   0.0000000000000000        0.00000000    
   4.1158425268772572E-002   0.0000000000000000        0.00000000    
   8.1636733812802773E-002   0.0000000000000000        0.00000000    
  0.12061333002434763        0.0000000000000000        0.00000000    
  0.15761238769039881        0.0000000000000000        0.00000000    
  0.19173568293021420        0.0000000000000000        0.00000000    
  0.22276031788795517        0.0000000000000000        0.00000000    
  0.24977347776417416        0.0000000000000000        0.00000000    
  0.27283256579852538        0.0000000000000000        0.00000000    
  0.29106313197069278        0.0000000000000000        0.00000000    
  0.30480319813283252        0.0000000000000000        0.00000000    
  0.31325925214749978        0.0000000000000000        0.00000000    
  0.31702230643462997        0.0000000000000000        0.00000000    
  0.31541295508723094        0.0000000000000000        0.00000000    
  0.30922357978407744        0.0000000000000000        0.00000000    
  0.29791492818405868        0.0000000000000000        0.00000000    
  0.28241275519381859        0.0000000000000000        0.00000000    
  0.26233913904355843        0.0000000000000000        0.00000000    
  0.23867809152294192        0.0000000000000000        0.00000000    
  0.21123055956361128        0.0000000000000000        0.00000000    
  0.18096539266905473        0.0000000000000000        0.00000000    
  0.14787611174307930        0.0000000000000000        0.00000000    
  0.11285157128003404        0.0000000000000000        0.00000000    
   7.6086231366059298E-002   0.0000000000000000        0.00000000    
   3.8337028213808730E-002   0.0000000000000000        0.00000000    
   0.0000000000000000        0.0000000000000000        0.00000000    
   0.0000000000000000        3.8504676963893272E-002   0.00000000    
  -3.8423465237415640E-002   3.8257238843356356E-002   0.00000000    
  -7.6353031509732397E-002   3.7422952918692527E-002   0.00000000    
 -0.11311085767348612        3.6101635839253327E-002   0.00000000    
 -0.14840268011873695        3.4216149405028998E-002   0.00000000    
 -0.18139638135524430        3.1868255854088264E-002   0.00000000    
 -0.21200121838223357        2.9003170908821263E-002   0.00000000    
 -0.23927549112151741        2.5720057694469851E-002   0.00000000    
 -0.26332675233443481        2.1993674571094652E-002   0.00000000    
 -0.28316276676667090        1.7917380691822977E-002   0.00000000    
 -0.29907772135553978        1.3501171407909955E-002   0.00000000    
 -0.31009925127117505        8.8304363570550042E-003   0.00000000    
 -0.31669215840948550        3.9532720065189259E-003   0.00000000    
 -0.31798005615046576       -1.0545948348535739E-003   0.00000000    
 -0.31457893174125701       -6.1081563759588023E-003   0.00000000    
 -0.30578209182311261       -1.1143307095308148E-002   0.00000000    
 -0.29233336086878947       -1.6044060260182923E-002   0.00000000    
 -0.27375759835475699       -2.0760835538631329E-002   0.00000000    
 -0.25089733136487752       -2.5157086667334082E-002   0.00000000    
 -0.22355003096256301       -2.9201937228143765E-002   0.00000000    
 -0.19261948849320606       -3.2751804292507722E-002   0.00000000    
 -0.15818986162269993       -3.5799677852740172E-002   0.00000000    
 -0.12117851332409038       -3.8209288447626458E-002   0.00000000    
  -8.1941740457311077E-002  -4.0002636455095331E-002   0.00000000    
  -4.1352573263482059E-002  -4.1063395233846528E-002   0.00000000    
   2.8763379564599284E-007  -4.1446154562289436E-002   0.00000000    
   4.1353146141934888E-002  -4.1063392846578187E-002   0.00000000    
   8.1942310925034317E-002  -4.0002631676945503E-002   0.00000000    
  0.12117907668263064       -3.8209281328727550E-002   0.00000000    
  0.15819041785990301       -3.5799668351622134E-002   0.00000000    
  0.19262003297275981       -3.2751792530073105E-002   0.00000000    
  0.22355056374073889       -2.9201923409737277E-002   0.00000000    
  0.25089784821688987       -2.5157070722865372E-002   0.00000000    
  0.27375809915112276       -2.0760817619745717E-002   0.00000000    
  0.29233384197709988       -1.6044040223425038E-002   0.00000000    
  0.30578255294463791       -1.1143285283665079E-002   0.00000000    
  0.31457936922438057       -6.1081328003553823E-003   0.00000000    
  0.31798047010619696       -1.0545696617612176E-003   0.00000000    
  0.31669254574706462        3.9532986828140675E-003   0.00000000    
  0.31009961179217849        8.8304643825246887E-003   0.00000000    
  0.29907805266222504        1.3501200743776377E-002   0.00000000    
  0.28316306872331104        1.7917411040704625E-002   0.00000000    
  0.26332702310089801        2.1993706121967469E-002   0.00000000    
  0.23927573036172445        2.5720089926887037E-002   0.00000000    
  0.21200142458000262        2.9003204052602507E-002   0.00000000    
  0.18139655445216785        3.1868289526098305E-002   0.00000000    
  0.14840281908472611        3.4216183662789251E-002   0.00000000    
  0.11311096253105793        3.6101670470113673E-002   0.00000000    
   7.6353101476688626E-002   3.7422987825236793E-002   0.00000000    
   3.8423500348852356E-002   3.8257273894843812E-002   0.00000000    
   0.0000000000000000        3.8504712179307357E-002   0.00000000    
   0.0000000000000000        7.7276868315954525E-002   0.00000000    
  -3.8776505786088461E-002   7.6686414209798714E-002   0.00000000    
  -7.6961881888478648E-002   7.5110115579157075E-002   0.00000000    
 -0.11416334119941282        7.2375154132678726E-002   0.00000000    
 -0.14961323521941725        6.8685742929225274E-002   0.00000000    
 -0.18312562923227177        6.3906152595054874E-002   0.00000000    
 -0.21379333085460667        5.8239207626919733E-002   0.00000000    
 -0.24163509297135588        5.1601450160657959E-002   0.00000000    
 -0.26565674990113097        4.4186594298958326E-002   0.00000000    
 -0.28607181015940153        3.5976929106760154E-002   0.00000000    
 -0.30186568974245270        2.7151850281865186E-002   0.00000000    
 -0.31343158659285797        1.7768576684553016E-002   0.00000000    
 -0.31981077290347948        7.9886171863983238E-003   0.00000000    
 -0.32155770822984198       -2.0537156117268213E-003   0.00000000    
 -0.31784838280997341       -1.2218094489920419E-002   0.00000000    
 -0.30937710998730705       -2.2300091502679989E-002   0.00000000    
 -0.29552661237639788       -3.2185114591411296E-002   0.00000000    
 -0.27710542984472031       -4.1615337094867817E-002   0.00000000    
 -0.25375802081699683       -5.0508872331261889E-002   0.00000000    
 -0.22637478114292406       -5.8579303416959098E-002   0.00000000    
 -0.19489138831772979       -6.5786985475754997E-002   0.00000000    
 -0.16023818569282972       -7.1845938682907812E-002   0.00000000    
 -0.12264159246351558       -7.6769581880102425E-002   0.00000000    
  -8.3018887343405068E-002  -8.0300434021303616E-002   0.00000000    
  -4.1857843276714546E-002  -8.2514422053397124E-002   0.00000000    
   2.8526892747167113E-007  -8.3204730405438410E-002   0.00000000    
   4.1858413810117304E-002  -8.2514417272537111E-002   0.00000000    
   8.3019453151577952E-002  -8.0300424500784923E-002   0.00000000    
  0.12264215350795557       -7.6769567630653540E-002   0.00000000    
  0.16023873727596552       -7.1845919729695965E-002   0.00000000    
  0.19489193058026119       -6.5786962087155579E-002   0.00000000    
  0.22637530947126067       -5.8579275589139911E-002   0.00000000    
  0.25375853518421954       -5.0508840508921612E-002   0.00000000    
  0.27710592641839593       -4.1615301204653378E-002   0.00000000    
  0.29552709100679875       -3.2185074894643825E-002   0.00000000    
  0.30937756705636288       -2.2300047802908330E-002   0.00000000    
  0.31784881816631133       -1.2218047451316131E-002   0.00000000    
  0.32155811858794003       -2.0536653759931811E-003   0.00000000    
  0.31981115822171635        7.9886704580764308E-003   0.00000000    
  0.31343194393046198        1.7768632911859417E-002   0.00000000    
  0.30186601897460236        2.7151908735679721E-002   0.00000000    
  0.28607210931125548        3.5976989768046801E-002   0.00000000    
  0.26565701879400827        4.4186656986592847E-002   0.00000000    
  0.24163532983804600        5.1601514808769941E-002   0.00000000    
  0.21379353555535496        5.8239273563399641E-002   0.00000000    
  0.18312580063915002        6.3906219869095560E-002   0.00000000    
  0.14961337321801332        6.8685811124185897E-002   0.00000000    
  0.11416344491213209        7.2375223220647752E-002   0.00000000    
   7.6961951374745902E-002   7.5110185145674829E-002   0.00000000    
   3.8776540472894992E-002   7.6686484256307572E-002   0.00000000    
   0.0000000000000000        7.7276938334605264E-002   0.00000000    
   0.0000000000000000       0.11638880955984930        0.00000000    
  -3.9294430115679950E-002  0.11564674283387980        0.00000000    
  -7.8095451649957084E-002  0.11313751845407945        0.00000000    
 -0.11571149698188871       0.10916658970474721        0.00000000    
 -0.15186080839834662       0.10349484629193703        0.00000000    
 -0.18568216691478773        9.6432135144531431E-002   0.00000000    
 -0.21710647481925105        8.7806567496657398E-002   0.00000000    
 -0.24514788335123786        7.7918593661847252E-002   0.00000000    
 -0.26994154225775879        6.6686098709316369E-002   0.00000000    
 -0.29043831550629406        5.4390590058044350E-002   0.00000000    
 -0.30696288048199155        4.1057964978889673E-002   0.00000000    
 -0.31847782163637300        2.6944630819065153E-002   0.00000000    
 -0.32547893114907300        1.2194188864696361E-002   0.00000000    
 -0.32702341076552888       -2.9665426510019008E-003   0.00000000    
 -0.32375752028842325       -1.8279154508562621E-002   0.00000000    
 -0.31491491827223322       -3.3551577791019256E-002   0.00000000    
 -0.30126918228198551       -4.8428534194774935E-002   0.00000000    
 -0.28230012241321273       -6.2760832482647438E-002   0.00000000    
 -0.25888086717722714       -7.6128714532209804E-002   0.00000000    
 -0.23078401019502920       -8.8438231466560657E-002   0.00000000    
 -0.19894650766466593       -9.9247626973985800E-002   0.00000000    
 -0.16344957495049778      -0.10853410693024616        0.00000000    
 -0.12524718731665332      -0.11587906932455735        0.00000000    
  -8.4712212104341544E-002 -0.12134730187608828        0.00000000    
  -4.2756653064280413E-002 -0.12458283249048252        0.00000000    
   2.8284709695076084E-007 -0.12575005965825573        0.00000000    
   4.2757216353237912E-002 -0.12458282529993436        0.00000000    
   8.4712772981839421E-002 -0.12134728762856556        0.00000000    
  0.12524774110602796      -0.11587904795025483        0.00000000    
  0.16345012180229476      -0.10853407870300238        0.00000000    
  0.19894704285035178       -9.9247591872699353E-002   0.00000000    
  0.23078453389908227       -8.8438189935594894E-002   0.00000000    
  0.25888137512881637       -7.6128666699433037E-002   0.00000000    
  0.28230061437989595       -6.2760778824408350E-002   0.00000000    
  0.30126965452638166       -4.8428474600463359E-002   0.00000000    
  0.31491537098916383       -3.3551512899971832E-002   0.00000000    
  0.32375795014643810       -1.8279084089591585E-002   0.00000000    
  0.32702381731022173       -2.9664674840623410E-003   0.00000000    
  0.32547931115667744        1.2194268782128304E-002   0.00000000    
  0.31847817530579331        2.6944714719446768E-002   0.00000000    
  0.30696320535526711        4.1058052661239686E-002   0.00000000    
  0.29043861131205373        5.4390680638620181E-002   0.00000000    
  0.26994180721425326        6.6686192585916085E-002   0.00000000    
  0.24514811746719800        7.7918689987729259E-002   0.00000000    
  0.21710667667156547        8.7806666184968338E-002   0.00000000    
  0.18568233620341959        9.6432235524307866E-002   0.00000000    
  0.15186094420615509       0.10349494827028181        0.00000000    
  0.11571159940444406       0.10916669268047723        0.00000000    
   7.8095519967508548E-002  0.11313762246430664        0.00000000    
   3.9294464421028491E-002  0.11564684724835776        0.00000000    
   0.0000000000000000       0.11638891420270094        0.00000000    
   0.0000000000000000       0.15629391766576914        0.00000000    
  -4.0069490945267662E-002  0.15510682805553955        0.00000000    
  -7.9538780360763700E-002  0.15194901643319114        0.00000000    
 -0.11802612096382008       0.14645974966913461        0.00000000    
 -0.15473202379532466       0.13905817253644737        0.00000000    
 -0.18949778813720014       0.12945720324809554        0.00000000    
 -0.22136080176220901       0.11807009233109399        0.00000000    
 -0.25037855677685789       0.10471550310989775        0.00000000    
 -0.27547966137313740        8.9785223383201829E-002   0.00000000    
 -0.29692296521628186        7.3232812260444355E-002   0.00000000    
 -0.31359993987905976        5.5418552046843504E-002   0.00000000    
 -0.32595134422431693        3.6451657936677491E-002   0.00000000    
 -0.33291651242523007        1.6654707960399771E-002   0.00000000    
 -0.33509669037207646       -3.7011366824514350E-003   0.00000000    
 -0.33156966845630431       -2.4336205581563932E-002   0.00000000    
 -0.32307486357220128       -4.4830667318175317E-002   0.00000000    
 -0.30891334342765875       -6.4955434728211150E-002   0.00000000    
 -0.28993835990252331       -8.4176710183162112E-002   0.00000000    
 -0.26574015071149015      -0.10232903631975454        0.00000000    
 -0.23725613865445122      -0.11881751456017316        0.00000000    
 -0.20440115395667144      -0.13355956714451886        0.00000000    
 -0.16815739525423518      -0.14596159480913254        0.00000000    
 -0.12876310501308499      -0.15604699609843548        0.00000000    
  -8.7192614793823037E-002 -0.16328357768570495        0.00000000    
  -4.3971424605748127E-002 -0.16782204313854227        0.00000000    
   2.7779682917136080E-007 -0.16923822468112798        0.00000000    
   4.3971980284329630E-002 -0.16782203362767897        0.00000000    
   8.7193165698582181E-002 -0.16328355857321492        0.00000000    
  0.12876365129899503      -0.15604696788212424        0.00000000    
  0.16815793234037849      -0.14596155728655144        0.00000000    
  0.20440168211134732      -0.13355952074098540        0.00000000    
  0.23725665323696829      -0.11881745927765870        0.00000000    
  0.26574065167063249      -0.10232897286268065        0.00000000    
  0.28993884343192639       -8.4176638734568154E-002   0.00000000    
  0.30891380965675475       -6.4955355901651232E-002   0.00000000    
  0.32307530858100286       -4.4830580911608492E-002   0.00000000    
  0.33157009199813836       -2.4336112352218341E-002   0.00000000    
  0.33509708944399913       -3.7010365426436028E-003   0.00000000    
  0.33291688712905038        1.6654813810165762E-002   0.00000000    
  0.32595169165872484        3.6451769512332859E-002   0.00000000    
  0.31360026001356289        5.5418668149981948E-002   0.00000000    
  0.29692325591947277        7.3232932919072347E-002   0.00000000    
  0.27547992240551589        8.9785347701840712E-002   0.00000000    
  0.25037878664249374       0.10471563100103071        0.00000000    
  0.22136100032331063       0.11807022302234832        0.00000000    
  0.18949795432745875       0.12945733655946787        0.00000000    
  0.15473215753902808       0.13905830751058967        0.00000000    
  0.11802622137250714       0.14645988636935162        0.00000000    
   7.9538847517707817E-002  0.15194915407569323        0.00000000    
   4.0069524486036082E-002  0.15510696646613636        0.00000000    
   0.0000000000000000       0.15629405615863404        0.00000000    
   0.0000000000000000       0.19684527628640891        0.00000000    
  -4.0984231018552482E-002  0.19561040208875646        0.00000000    
  -8.1478177349994615E-002  0.19140988869486059        0.00000000    
 -0.12076399418700176       0.18477324539115333        0.00000000    
 -0.15858789886834945       0.17527569445272267        0.00000000    
 -0.19403042498565937       0.16344918190410443        0.00000000    
 -0.22706940278532489       0.14898131454261515        0.00000000    
 -0.25662906310370259       0.13238290564733435        0.00000000    
 -0.28290377339557765       0.11349484426680240        0.00000000    
 -0.30472708359780232        9.2791013905796096E-002   0.00000000    
 -0.32248855221940120        7.0300001126597719E-002   0.00000000    
 -0.33501527190349728        4.6449540248621968E-002   0.00000000    
 -0.34286811760132707        2.1476045771129219E-002   0.00000000    
 -0.34496483613374496       -4.2443719004045350E-003   0.00000000    
 -0.34201391514016044       -3.0269708321638587E-002   0.00000000    
 -0.33312316729407915       -5.6281512496168563E-002   0.00000000    
 -0.31912568839687011       -8.1662384891266412E-002   0.00000000    
 -0.29940638654420754      -0.10616284185441152        0.00000000    
 -0.27489825521347622      -0.12904804261557884        0.00000000    
 -0.24532234569819300      -0.15015722743935375        0.00000000    
 -0.21168014598836721      -0.16871583707802304        0.00000000    
 -0.17404839066909161      -0.18467963743788759        0.00000000    
 -0.13345318747316706      -0.19731724601202597        0.00000000    
  -9.0304059040927281E-002 -0.20673174562083035        0.00000000    
  -4.5591552905239002E-002 -0.21230637101584082        0.00000000    
   2.7269664993639415E-007 -0.21431622432954106        0.00000000    
   4.5592095805428438E-002 -0.21230635909679149        0.00000000    
   9.0304599846388001E-002 -0.20673172204797188        0.00000000    
  0.13345372136739286      -0.19731721072599831        0.00000000    
  0.17404891792331384      -0.18467959114524798        0.00000000    
  0.21168066197718338      -0.16871577924767173        0.00000000    
  0.24532285060698736      -0.15015715893146964        0.00000000    
  0.27489874507377765      -0.12904796371200214        0.00000000    
  0.29940686140592565      -0.10616275342398898        0.00000000    
  0.31912614414230722       -8.1662286629939740E-002   0.00000000    
  0.33312360400993629       -5.6281405274484476E-002   0.00000000    
  0.34201432936193910       -3.0269591946355510E-002   0.00000000    
  0.34496522779595762       -4.2442478770453431E-003   0.00000000    
  0.34286848372681911        2.1476177642177168E-002   0.00000000    
  0.33501561258427121        4.6449678517138680E-002   0.00000000    
  0.32248886498010765        7.0300145756858667E-002   0.00000000    
  0.30472736828114760        9.2791163545988764E-002   0.00000000    
  0.28290402838430839       0.11349499896931622        0.00000000    
  0.25662928814244096       0.13238306427134161        0.00000000    
  0.22706959663863568       0.14898147699097078        0.00000000    
  0.19403058763382186       0.16344934703438166        0.00000000    
  0.15858802932381683       0.17527586224722488        0.00000000    
  0.12076409245214012       0.18477341479637169        0.00000000    
   8.1478242892632474E-002  0.19141005960661964        0.00000000    
   4.0984263869192065E-002  0.19561057353828559        0.00000000    
   0.0000000000000000       0.19684544813176486        0.00000000    
   0.0000000000000000       0.23868557017798639        0.00000000    
  -4.2135686226574529E-002  0.23689117455742076        0.00000000    
  -8.3658850270202409E-002  0.23214737572866717        0.00000000    
 -0.12421039887377237       0.22387427259945850        0.00000000    
 -0.16293882405884710       0.21272814594600375        0.00000000    
 -0.19973635585719676       0.19823793652844712        0.00000000    
 -0.23354677973383056       0.18104310984233982        0.00000000    
 -0.26449869997683106       0.16083383825283681        0.00000000    
 -0.29138783389687212       0.13820890326150923        0.00000000    
 -0.31455552100443585       0.11306909848810150        0.00000000    
 -0.33272913695749629        8.5958147413977101E-002   0.00000000    
 -0.34643496326794476        5.7025084980947091E-002   0.00000000    
 -0.35443200413738835        2.6751532628852048E-002   0.00000000    
 -0.35740384557701160       -4.4501551024009427E-003   0.00000000    
 -0.35425294766477777       -3.6164600382316156E-002   0.00000000    
 -0.34579546903474195       -6.7733704591065466E-002   0.00000000    
 -0.33118624573649946       -9.8815752749124228E-002   0.00000000    
 -0.31135177005702330      -0.12856211050651692        0.00000000    
 -0.28578611296469575      -0.15672142146841239        0.00000000    
 -0.25550197970044020      -0.18234275148750770        0.00000000    
 -0.22037941972681466      -0.20529393294512863        0.00000000    
 -0.18148401976450759      -0.22462755787649830        0.00000000    
 -0.13907857075942401      -0.24036883889103156        0.00000000    
  -9.4231570658281680E-002 -0.25167514288742032        0.00000000    
  -4.7538312173790363E-002 -0.25876760003436894        0.00000000    
   2.6472081282121283E-007 -0.26098425964103517        0.00000000    
   4.7538842031092265E-002 -0.25876758603788280        0.00000000    
   9.4232096021106534E-002 -0.25167511480279331        0.00000000    
  0.13907909196946067      -0.24036879705274491        0.00000000    
  0.18148453201712253      -0.22462750253869140        0.00000000    
  0.22037992360086125      -0.20529386451596363        0.00000000    
  0.25550247092673045      -0.18234266985065550        0.00000000    
  0.28578659162798659      -0.15672132808230313        0.00000000    
  0.31135223184956196      -0.12856200468928564        0.00000000    
  0.33118669089572778       -9.8815636125004963E-002   0.00000000    
  0.34579589371145325       -6.7733576220069480E-002   0.00000000    
  0.35425335193542862       -3.6164462256194622E-002   0.00000000    
  0.35740422644485065       -4.4500068674928860E-003   0.00000000    
  0.35443236147494672        2.6751689355365059E-002   0.00000000    
  0.34643529438337856        5.7025250060852371E-002   0.00000000    
  0.33272944169024732        8.5958319535613462E-002   0.00000000    
  0.31455579744783391       0.11306927700364527        0.00000000    
  0.29138808200305633       0.13820908712051480        0.00000000    
  0.26449891839697276       0.16083402735640051        0.00000000    
  0.23354696841389608       0.18104330273665784        0.00000000    
  0.19973651357704514       0.19823813337814142        0.00000000    
  0.16293895078304382       0.21272834520945105        0.00000000    
  0.12421049397263408       0.22387447435141114        0.00000000    
   8.3658913826071643E-002  0.23214757855920051        0.00000000    
   4.2135718071074656E-002  0.23689137849155845        0.00000000    
   0.0000000000000000       0.23868577423388906        0.00000000    
   0.0000000000000000       0.28140808029330150        0.00000000    
  -4.3381546042966020E-002  0.27968698441710127        0.00000000    
  -8.6282766504409039E-002  0.27377703789107721        0.00000000    
 -0.12794939024209878       0.26446387034879576        0.00000000    
 -0.16817692062684483       0.25109559078221622        0.00000000    
 -0.20595862359228675       0.23445081356947053        0.00000000    
 -0.24135191488199007       0.21403503419148345        0.00000000    
 -0.27314235757878713       0.19058536319208835        0.00000000    
 -0.30162365540383845       0.16382889524317812        0.00000000    
 -0.32544467824189427       0.13443890175711290        0.00000000    
 -0.34510288370921621       0.10242124948480361        0.00000000    
 -0.35920824589750244        6.8374255437968268E-002   0.00000000    
 -0.36842803096782445        3.2620270628120458E-002   0.00000000    
 -0.37145322327524805       -4.3207767684942684E-003   0.00000000    
 -0.36909069359291968       -4.1806325267827855E-002   0.00000000    
 -0.36024180943893463       -7.9397261428753516E-002   0.00000000    
 -0.34582923004906896      -0.11617291901236323        0.00000000    
 -0.32508256296870425      -0.15178500744876283        0.00000000    
 -0.29902074126229544      -0.18512492507877598        0.00000000    
 -0.26728310696093571      -0.21595993726544591        0.00000000    
 -0.23096227254658366      -0.24311906443670189        0.00000000    
 -0.19013291873923258      -0.26652610311590014        0.00000000    
 -0.14592521133468839      -0.28508237376590811        0.00000000    
  -9.8814024941151796E-002 -0.29891871827457800        0.00000000    
  -4.9908204708145457E-002 -0.30712202751498208        0.00000000    
   2.5673884384276501E-007 -0.31007579467595364        0.00000000    
   4.9908715701871012E-002 -0.30712201145021223        0.00000000    
   9.8814534294628831E-002 -0.29891868612350464        0.00000000    
  0.14592571418589698      -0.28508232533901101        0.00000000    
  0.19013341576220902      -0.26652603958104432        0.00000000    
  0.23096275914103273      -0.24311898539748739        0.00000000    
  0.26728358374677064      -0.21595984378226485        0.00000000    
  0.29902120371088364      -0.18512481663874494        0.00000000    
  0.32508301125344274      -0.15178488565084175        0.00000000    
  0.34582966014699024      -0.11617278354879951        0.00000000    
  0.36024222155215657       -7.9397113429974450E-002   0.00000000    
  0.36909108430344861       -4.1806164960727477E-002   0.00000000    
  0.37145359242502463       -4.3206057509882160E-003   0.00000000    
  0.36842837589246441        3.2620452327462884E-002   0.00000000    
  0.35920856647739358        6.8374446111931358E-002   0.00000000    
  0.34510317784690192       0.10242144883728198        0.00000000    
  0.32544494581192107       0.13443910789884109        0.00000000    
  0.30162389466767975       0.16382910811941170        0.00000000    
  0.27314256863347242       0.19058558117363761        0.00000000    
  0.24135209657284434       0.21403525731173748        0.00000000    
  0.20595877600194262       0.23445104043465981        0.00000000    
  0.16817704296454852       0.25109582109778711        0.00000000    
  0.12794948234451620       0.26446410290926237        0.00000000    
   8.6282827955150437E-002  0.27377727210778052        0.00000000    
   4.3381576820903295E-002  0.27968721934925794        0.00000000    
   0.0000000000000000       0.28140831597363858        0.00000000    
   0.0000000000000000       0.32586049495204278        0.00000000    
  -4.4829836266844149E-002  0.32344697833604086        0.00000000    
  -8.9035699940056834E-002  0.31712515441822736        0.00000000    
 -0.13229890568217859       0.30604660918501464        0.00000000    
 -0.17369756381836265       0.29114006647487889        0.00000000    
 -0.21320674779808560       0.27169824999783154        0.00000000    
 -0.24963710534821107       0.24861227196584457        0.00000000    
 -0.28323094748808869       0.22139343442804843        0.00000000    
 -0.31258959894155869       0.19086179768117567        0.00000000    
 -0.33818554989290445       0.15682399602710898        0.00000000    
 -0.35850047244351041       0.12001030637422327        0.00000000    
 -0.37419526520954660        8.0586374969717184E-002   0.00000000    
 -0.38375331139148722        3.9187004005797568E-002   0.00000000    
 -0.38798448706025029       -3.6301222795799394E-003   0.00000000    
 -0.38551905014108634       -4.7323926336804045E-002   0.00000000    
 -0.37728507007890533       -9.0961506298746983E-002   0.00000000    