 <VTKFile type="UnstructuredGrid" version="0.1" byte_order="BigEndian">
 <UnstructuredGrid>
 <Piece NumberOfPoints="        2601 " NumberOfCells="        2500 ">
 <PointData Scalars="scalars">
 <DataArray type="Float32" NumberOfComponents="3" Name="Velocity" Format="ascii">
   0.0000000000000000        0.0000000000000000        0.00000000    
 -0.10708514952910364        0.0000000000000000        0.00000000    
 -0.21330211530699852        0.0000000000000000        0.00000000    
 -0.31815670167827703        0.0000000000000000        0.00000000    
 -0.42033400170141200        0.0000000000000000        0.00000000    
 -0.51962945236609293        0.0000000000000000        0.00000000    
 -0.61422078787250101        0.0000000000000000        0.00000000    
 -0.70408745159427000        0.0000000000000000        0.00000000    
 -0.78686855202369566        0.0000000000000000        0.00000000    
 -0.86258785422047690        0.0000000000000000        0.00000000    
 -0.92838862224541130        0.0000000000000000        0.00000000    
 -0.98416467646720407        0.0000000000000000        0.00000000    
  -1.0267629274666878        0.0000000000000000        0.00000000    
  -1.0557798704161321        0.0000000000000000        0.00000000    
  -1.0682276663390933        0.0000000000000000        0.00000000    
  -1.0633535557666434        0.0000000000000000        0.00000000    
  -1.0390963181781223        0.0000000000000000        0.00000000    
 -0.99455340058103348        0.0000000000000000        0.00000000    
 -0.92945924840583449        0.0000000000000000        0.00000000    
 -0.84324511814531133        0.0000000000000000        0.00000000    
 -0.73794705994855792        0.0000000000000000        0.00000000    
 -0.61393648221958053        0.0000000000000000        0.00000000    
 -0.47524491968659277        0.0000000000000000        0.00000000    
 -0.32365824271611748        0.0000000000000000        0.00000000    
 -0.16412691263468188        0.0000000000000000        0.00000000    
  -9.3118875723485805E-007   0.0000000000000000        0.00000000    
  0.16412506464698334        0.0000000000000000        0.00000000    
  0.32365642074706186        0.0000000000000000        0.00000000    
  0.47524315042065685        0.0000000000000000        0.00000000    
  0.61393477406635999        0.0000000000000000        0.00000000    
  0.73794543418947367        0.0000000000000000        0.00000000    
  0.84324357790374016        0.0000000000000000        0.00000000    
  0.92945780658170474        0.0000000000000000        0.00000000    
  0.99455205692348914        0.0000000000000000        0.00000000    
   1.0390950785013116        0.0000000000000000        0.00000000    
   1.0633524166817307        0.0000000000000000        0.00000000    
   1.0682266295740277        0.0000000000000000        0.00000000    
   1.0557789300267697        0.0000000000000000        0.00000000    
   1.0267620828013304        0.0000000000000000        0.00000000    
  0.98416392134496267        0.0000000000000000        0.00000000    
  0.92838795356133230        0.0000000000000000        0.00000000    
  0.86258726600594726        0.0000000000000000        0.00000000    
  0.78686804126047838        0.0000000000000000        0.00000000    
  0.70408701404044227        0.0000000000000000        0.00000000    
  0.61422042034379687        0.0000000000000000        0.00000000    
  0.51962915101180329        0.0000000000000000        0.00000000    
  0.42033376412903639        0.0000000000000000        0.00000000    
  0.31815652567713643        0.0000000000000000        0.00000000    
  0.21330199878207762        0.0000000000000000        0.00000000    
  0.10708509150806557        0.0000000000000000        0.00000000    
   0.0000000000000000        0.0000000000000000        0.00000000    
   0.0000000000000000       0.10707084009342649        0.00000000    
 -0.10672336345690586       0.10673915347126697        0.00000000    
 -0.21278195252316129       0.10553788165807725        0.00000000    
 -0.31709867733462616       0.10363490928293762        0.00000000    
 -0.41934486957000561       0.10079006184933989        0.00000000    
 -0.51796369593310843        9.7125692989065843E-002   0.00000000    
 -0.61287213825131215        9.2375561160498165E-002   0.00000000    
 -0.70198225569634787        8.6602694715640610E-002   0.00000000    
 -0.78533902148994250        7.9536644120348651E-002   0.00000000    
 -0.86031623019602665        7.1161337210254277E-002   0.00000000    
 -0.92693019054766834        6.1254858891793350E-002   0.00000000    
 -0.98211529022998523        4.9707759977854142E-002   0.00000000    
  -1.0256742946070698        3.6450957098590704E-002   0.00000000    
  -1.0544094915876314        2.1302641227715805E-002   0.00000000    
  -1.0677662756507926        4.5033934382607745E-003   0.00000000    
  -1.0630336072293871       -1.4108721495010787E-002   0.00000000    
  -1.0393365088489956       -3.3844167490226257E-002   0.00000000    
 -0.99534308418792650       -5.4690731746616719E-002   0.00000000    
 -0.93019820946239840       -7.5546856000528448E-002   0.00000000    
 -0.84476340370834235       -9.6100644687429487E-002   0.00000000    
 -0.73879305041732402      -0.11516633486061290        0.00000000    
 -0.61550297861750569      -0.13213288596232975        0.00000000    
 -0.47585186282587810      -0.14620836617137109        0.00000000    
 -0.32462337781817924      -0.15660537179107578        0.00000000    
 -0.16433841750344114      -0.16320949592813755        0.00000000    
  -9.2811340856629499E-007 -0.16525255299892747        0.00000000    
  0.16433656740960756      -0.16320951645094015        0.00000000    
  0.32462156227949102      -0.15660541184206742        0.00000000    
  0.47585009240478487      -0.14620842394110722        0.00000000    
  0.61550127804335819      -0.13213295915227197        0.00000000    
  0.73879142544655418      -0.11516641966820554        0.00000000    
  0.84476187143848513       -9.6100738098286217E-002   0.00000000    
  0.93019677094355824       -7.5546954758158133E-002   0.00000000    
  0.99534174887011817       -5.4690834356634861E-002   0.00000000    
   1.0393352742811983       -3.3844269610986674E-002   0.00000000    
   1.0630324764413734       -1.4108823745967353E-002   0.00000000    
   1.0677652435896483        4.5032946424642039E-003   0.00000000    
   1.0544085584690226        2.1302544705234343E-002   0.00000000    
   1.0256734543783061        3.6450865007181477E-002   0.00000000    
  0.98211454045915869        4.9707672068169111E-002   0.00000000    
  0.92692952519199368        6.1254775948120656E-002   0.00000000    
  0.86031564632538304        7.1161258199303398E-002   0.00000000    
  0.78533851427813339        7.9536569021107215E-002   0.00000000    
  0.70198182153297428        8.6602623557011468E-002   0.00000000    
  0.61287177295726414        9.2375493424631652E-002   0.00000000    
  0.51796339700885441        9.7125628180677423E-002   0.00000000    
  0.41934463394686894       0.10078999957464968        0.00000000    
  0.31709850249581478       0.10363484920202158        0.00000000    
  0.21278183694623332       0.10553782300084268        0.00000000    
  0.10672330598328571       0.10673909552126333        0.00000000    
   0.0000000000000000       0.10707078254872418        0.00000000    
   0.0000000000000000       0.21361064544763311        0.00000000    
 -0.10583200643678131       0.21275613697804413        0.00000000    
 -0.21082027339742518       0.21056917291451319        0.00000000    
 -0.31450039941630847       0.20660188694612616        0.00000000    
 -0.41558027111909152       0.20115056551488103        0.00000000    
 -0.51389956993601915       0.19370473059319140        0.00000000    
 -0.60765437455808091       0.18446118540259507        0.00000000    
 -0.69689659172263196       0.17287081802610024        0.00000000    
 -0.77926642037928484       0.15899652650634644        0.00000000    
 -0.85490235762261091       0.14231600939825298        0.00000000    
 -0.92090268339799930       0.12271587920987737        0.00000000    
 -0.97731789462204388        9.9848453702908110E-002   0.00000000    
  -1.0208581480790391        7.3410921518121564E-002   0.00000000    
  -1.0512782850562234        4.3499407319573254E-002   0.00000000    
  -1.0653288718297305        9.7153913307911673E-003   0.00000000    
  -1.0623293148878177       -2.7051555665738455E-002   0.00000000    
  -1.0398912562551290       -6.7035105142652693E-002   0.00000000    
 -0.99701804720994702      -0.10836504665652856        0.00000000    
 -0.93325759063185110      -0.15077649538341198        0.00000000    
 -0.84778926200601623      -0.19177276630920562        0.00000000    
 -0.74282237559523634      -0.23043008348553845        0.00000000    
 -0.61840667658190374      -0.26457354154658952        0.00000000    
 -0.47906761826306682      -0.29275652120715090        0.00000000    
 -0.32629990914775786      -0.31405204918743834        0.00000000    
 -0.16553829866746830      -0.32680802936944431        0.00000000    
  -9.2766832133863508E-007 -0.33152752060168772        0.00000000    
  0.16553645862540087      -0.32680807131980644        0.00000000    
  0.32629809654203268      -0.31405212980236680        0.00000000    
  0.47906586069868773      -0.29275663857190193        0.00000000    
  0.61840498278817391      -0.26457368875913140        0.00000000    
  0.74282076700584521      -0.23043025507826700        0.00000000    
  0.84778774171861404      -0.19177295393785460        0.00000000    
  0.93325617156760621      -0.15077669489744999        0.00000000    
  0.99701672772284411      -0.10836525128834482        0.00000000    
   1.0398900421120041       -6.7035311335637157E-002   0.00000000    
   1.0623282014531694       -2.7051758332768371E-002   0.00000000    
   1.0653278596276672        9.7151929915769795E-003   0.00000000    
   1.0512773681711844        4.3499216080909363E-002   0.00000000    
   1.0208573243881445        7.3410738058865055E-002   0.00000000    
  0.97731715821809673        9.9848279416143840E-002   0.00000000    
  0.92090203126524783       0.12271571395689258        0.00000000    
  0.85490178490380420       0.14231585179759482        0.00000000    
  0.77926592385041493       0.15899637714799622        0.00000000    
  0.69689616639877494       0.17287067687308588        0.00000000    
  0.60765401735701574       0.18446105066895024        0.00000000    
  0.51389927738132579       0.19370460176636864        0.00000000    
  0.41558004069676618       0.20115044182509254        0.00000000    
  0.31450022876858608       0.20660176772133410        0.00000000    
  0.21082016060893322       0.21056905627999289        0.00000000    
  0.10583195038347384       0.21275602216678613        0.00000000    
   0.0000000000000000       0.21361053123720972        0.00000000    
   0.0000000000000000       0.31868666027664222        0.00000000    
 -0.10420342767314238       0.31771691393737089        0.00000000    
 -0.20779230487776090       0.31418689744734485        0.00000000    
 -0.30973543012657057       0.30860877061087472        0.00000000    
 -0.40977121650911802       0.30026069580671422        0.00000000    
 -0.50638582394516740       0.28952986161782435        0.00000000    
 -0.59960318354559150       0.27560957188902541        0.00000000    
 -0.68736189565676242       0.25872471285577497        0.00000000    
 -0.76988486889312047       0.23803678311506374        0.00000000    
 -0.84451748546715799       0.21354565441428450        0.00000000    
 -0.91154961811402790       0.18452003723062849        0.00000000    
 -0.96775597725044971       0.15066720835817199        0.00000000    
  -1.0132847379514944       0.11166251952813101        0.00000000    
  -1.0445456112020381        6.6930155101923461E-002   0.00000000    
  -1.0612722725899262        1.7063223037441701E-002   0.00000000    
  -1.0601093223036731       -3.8560566907713353E-002   0.00000000    
  -1.0402037298954068       -9.7868421592285593E-002   0.00000000    
 -0.99959366642277958      -0.16101368361626273        0.00000000    
 -0.93706911167649465      -0.22441155465901305        0.00000000    
 -0.85341991186797539      -0.28725392488102158        0.00000000    
 -0.74778280171589895      -0.34555161415800950        0.00000000    
 -0.62415435683276421      -0.39749485156961228        0.00000000    
 -0.48281748674349761      -0.44050983862558213        0.00000000    
 -0.32972501961075251      -0.47215760997791412        0.00000000    
 -0.16687368246841028      -0.49231411927266577        0.00000000    
  -9.2104656592867886E-007 -0.49843026725378714        0.00000000    
  0.16687184705093072      -0.49231418319326142        0.00000000    
  0.32972322289314082      -0.47215773475882278        0.00000000    
  0.48281574007720213      -0.44051001691703173        0.00000000    
  0.62415268515634703      -0.39749507661599887        0.00000000    
  0.74778121075618287      -0.34555187383795755        0.00000000    
  0.85341841922825190      -0.28725421104445603        0.00000000    
  0.93706771753932117      -0.22441185536400349        0.00000000    
  0.99959237885496444      -0.16101399320365700        0.00000000    
   1.0402025444358107       -9.7868730281925762E-002   0.00000000    
   1.0601082407325928       -3.8560871675115162E-002   0.00000000    
   1.0612712886672691        1.7062927917552269E-002   0.00000000    
   1.0445447225848288        6.6929870021423379E-002   0.00000000    
   1.0132839386841634       0.11166224736664604        0.00000000    
  0.96775526498710285       0.15066694848266304        0.00000000    
  0.91154898787871552       0.18451979126711388        0.00000000    
  0.84451693317695198       0.21354542016506162        0.00000000    
  0.76988438911714019       0.23803656170107049        0.00000000    
  0.68736148565765975       0.25872450277646708        0.00000000    
  0.59960283947211668       0.27560937203320834        0.00000000    
  0.50638554254716861       0.28952967059127865        0.00000000    
  0.40977099498642605       0.30026051230892636        0.00000000    
  0.30973526632127774       0.30860859370203392        0.00000000    
  0.20779219680434902       0.31418672490571431        0.00000000    
  0.10420337381074124       0.31771674408698025        0.00000000    
   0.0000000000000000       0.31868649118959530        0.00000000    
   0.0000000000000000       0.42214747917892465        0.00000000    
 -0.10202351278307085       0.42048433207768632        0.00000000    
 -0.20326982459019147       0.41625596474242338        0.00000000    
 -0.30335152573520269       0.40856582537424441        0.00000000    
 -0.40104275078425983       0.39803194764396316        0.00000000    
 -0.49629612442346788       0.38362788449729862        0.00000000    
 -0.58736666873731214       0.36580074571223703        0.00000000    
 -0.67449698921005341       0.34342386209671283        0.00000000    
 -0.75534531312349684       0.31671022024487588        0.00000000    
 -0.83037151827906741       0.28453232514781152        0.00000000    
 -0.89657085372878442       0.24676611897701881        0.00000000    
 -0.95447791536396942       0.20253582794639230        0.00000000    
  -1.0004314323956598       0.15127745586195218        0.00000000    
  -1.0347551431061850        9.2901076504682045E-002   0.00000000    
  -1.0533957483416563        2.6460838869037974E-002   0.00000000    
  -1.0560416634868806       -4.6473951984189570E-002   0.00000000    
  -1.0391615653022950      -0.12673946528593688        0.00000000    
  -1.0015713018781789      -0.21034170954714732        0.00000000    
 -0.94205118160207113      -0.29712695134023448        0.00000000    
 -0.85899570193258057      -0.38124195911297887        0.00000000    
 -0.75518932136429262      -0.46100582717487981        0.00000000    
 -0.62960626674335995      -0.53125089732656350        0.00000000    
 -0.48863471906123868      -0.58906097425318193        0.00000000    
 -0.33269178578390152      -0.63264063991887509        0.00000000    
 -0.16896507465297600      -0.65840790528300797        0.00000000    
  -9.1726128400775156E-007 -0.66817216821873859        0.00000000    
  0.16896325786104038      -0.65840799360988611        0.00000000    
  0.33269000054900977      -0.63264081055042509        0.00000000    
  0.48863299690889361      -0.58906121982786275        0.00000000    
  0.62960461728873618      -0.53125120277734328        0.00000000    
  0.75518776653847153      -0.46100618179595704        0.00000000    
  0.85899424292728221      -0.38124234447583016        0.00000000    
  0.94204982944115923      -0.29712735819277181        0.00000000    
   1.0015700529368579      -0.21034212277597836        0.00000000    
   1.0391604228634079      -0.12673987894482713        0.00000000    
   1.0560406211915176       -4.6474355814419922E-002   0.00000000    
   1.0533948045061101        2.6460446703698647E-002   0.00000000    
   1.0347542914172920        9.2900701017489651E-002   0.00000000    
   1.0004306699111074       0.15127709555290073        0.00000000    
  0.95447723638953885       0.20253548570430055        0.00000000    
  0.89657025402943824       0.24676579407692392        0.00000000    
  0.83037099251319857       0.28453201795654098        0.00000000    
  0.75534485768194892       0.31670992893433836        0.00000000    
  0.67449659982947652       0.34342358607605411        0.00000000    
  0.58736634238732577       0.36580048284150590        0.00000000    
  0.49629585813823279       0.38362763374539216        0.00000000    
  0.40104254138302198       0.39803170711218416        0.00000000    
  0.30335137074102686       0.40856559337488707        0.00000000    
  0.20326972229477464       0.41625573886062150        0.00000000    
  0.10202346204878369       0.42048410979527834        0.00000000    
   0.0000000000000000       0.42214725792715857        0.00000000    
   0.0000000000000000       0.52263748114251329        0.00000000    
  -9.9077487355371904E-002  0.52109656612502875        0.00000000    
 -0.19762296639900795       0.51543675701357838        0.00000000    
 -0.29468853553099122       0.50653353859391392        0.00000000    
 -0.39011596292699402       0.49318412086197433        0.00000000    
 -0.48247827292091255       0.47609262838126365        0.00000000    
 -0.57196595858720412       0.45389546322182006        0.00000000    
 -0.65658648682034404       0.42708122387395930        0.00000000    
 -0.73686003668034750       0.39417595991465454        0.00000000    
 -0.81011858360145694       0.35535256400979137        0.00000000    
 -0.87716520311140811       0.30919305777614664        0.00000000    
 -0.93453565760453983       0.25538762623089123        0.00000000    
 -0.98315130327753775       0.19299603671095858        0.00000000    
  -1.0186988508175066       0.12105496782790635        0.00000000    
  -1.0417647409814701        4.0014651783637868E-002   0.00000000    
  -1.0475498174186351       -5.1595568051626545E-002   0.00000000    
  -1.0355711494194628      -0.15047541533300648        0.00000000    
  -1.0021274898050661      -0.25763848731374939        0.00000000    
 -0.94538816383999136      -0.36608842923362972        0.00000000    
 -0.86570111923688520      -0.47502182077125110        0.00000000    
 -0.76081226898706444      -0.57592001506419077        0.00000000    
 -0.63682167560571001      -0.66590918206223493        0.00000000    
 -0.49235409586058709      -0.73984064357951174        0.00000000    
 -0.33662982752774634      -0.79352700327280090        0.00000000    
 -0.17003053423533923      -0.82784637824715768        0.00000000    
  -9.0642988288512031E-007 -0.83772631399861364        0.00000000    
  0.17002872986690565      -0.82784649279600997        0.00000000    
  0.33662806985958799      -0.79352722593969782        0.00000000    
  0.49235239738069819      -0.73984095938968308        0.00000000    
  0.63682006499031385      -0.66590957783975491        0.00000000    
  0.76081075165000867      -0.57592046726570012        0.00000000    
  0.86569971110302935      -0.47502231357741725        0.00000000    
  0.94538686135800853      -0.36608894113914808        0.00000000    
   1.0021262972391018      -0.25763900862523853        0.00000000    
   1.0355700599565887      -0.15047593051480301        0.00000000    
   1.0475488293866448       -5.1596071933395007E-002   0.00000000    
   1.0417638474751507        4.0014166684306941E-002   0.00000000    
   1.0186980483332166       0.12105450210598231        0.00000000    
  0.98315058562515345       0.19299559260034976        0.00000000    
  0.93453502067580774       0.25538720355653888        0.00000000    
  0.87716464164492591       0.30919265857093314        0.00000000    
  0.81011809295182724       0.35535218637326510        0.00000000    
  0.73685961212584872       0.39417560262987444        0.00000000    
  0.65658612506810365       0.42708088496426649        0.00000000    
  0.57196565570943247       0.45389514133501624        0.00000000    
  0.48247802541412210       0.47609232120965012        0.00000000    
  0.39011576867038777       0.49318382661567317        0.00000000    
  0.29468839213762382       0.50653325503873159        0.00000000    
  0.19762287169643070       0.51543648129800457        0.00000000    
   9.9077440102108630E-002  0.52109629466590102        0.00000000    
   0.0000000000000000       0.52263721107986816        0.00000000    
   0.0000000000000000       0.62037993436244721        0.00000000    
  -9.5554671966468857E-002  0.61798744751068979        0.00000000    
 -0.19042306499162248       0.61196092289286630        0.00000000    
 -0.28430876989483150       0.60096182108601592        0.00000000    
 -0.37609000794186254       0.58596567787939846        0.00000000    
 -0.46584503626603069       0.56542958201011917        0.00000000    
 -0.55193785876601020       0.54014018961071131        0.00000000    
 -0.63483540474306055       0.50835574089901170        0.00000000    
 -0.71226795375349328       0.47060871022299017        0.00000000    
 -0.78512421621645267       0.42503578796211416        0.00000000    
 -0.85032693861193687       0.37176033948234211        0.00000000    
 -0.90918833593718618       0.30905335557551095        0.00000000    
 -0.95758901316475276       0.23634778776242565        0.00000000    
 -0.99706181896532631       0.15272472226129899        0.00000000    
  -1.0222505526035119        5.6600670543517875E-002   0.00000000    
  -1.0340959277095547       -5.0549991730718918E-002   0.00000000    
  -1.0265972504028418      -0.17099719772554972        0.00000000    
 -0.99877529389091479      -0.29838118747646075        0.00000000    
 -0.94710185224871513      -0.43375736924608982        0.00000000    
 -0.86859026658160599      -0.56555038811237002        0.00000000    
 -0.76705307443341897      -0.69181637455128986        0.00000000    
 -0.63927850992283952      -0.80177686759668254        0.00000000    
 -0.49651617613153631      -0.89120176550043251        0.00000000    
 -0.33662302464376648      -0.95778219615367299        0.00000000    
 -0.17106236830889127      -0.99575003406374130        0.00000000    
  -8.9857760914067031E-007  -1.0109126549963181        0.00000000    
  0.17106059297211673      -0.99575017892236484        0.00000000    
  0.33662128909321698      -0.95778247499731717        0.00000000    
  0.49651451887422221      -0.89120216261537089        0.00000000    
  0.63927694043914218      -0.80177735770757741        0.00000000    
  0.76705161518650344      -0.69181693593456650        0.00000000    
  0.86858891569451102      -0.56555098929982683        0.00000000    
  0.94710061763201736      -0.43375799469261728        0.00000000    
  0.99877416740982372      -0.29838181329860602        0.00000000    
   1.0265962294282696      -0.17099781700633482        0.00000000    
   1.0340950041234065       -5.0550590332849345E-002   0.00000000    
   1.0222497220325863        5.6600092623615317E-002   0.00000000    
  0.99706107525881416       0.15272417147345885        0.00000000    
  0.95758835106319173       0.23634726228083380        0.00000000    
  0.90918774943222225       0.30905285795184634        0.00000000    
  0.85032642254732627       0.37175986932379301        0.00000000    
  0.78512376641244419       0.42503534420142236        0.00000000    
  0.71226756637658895       0.47060829054009462        0.00000000    
  0.63483507524210969       0.50835534370917468        0.00000000    
  0.55193758356031786       0.54013981283427748        0.00000000    
  0.46584481220444118       0.56542922321300315        0.00000000    
  0.37608983208760871       0.58596533380103166        0.00000000    
  0.28430864024574981       0.60096149029444113        0.00000000    
  0.19042297942229683       0.61196060164309007        0.00000000    
   9.5554629461847382E-002  0.61798713107169789        0.00000000    
   0.0000000000000000       0.62037961952173337        0.00000000    
   0.0000000000000000       0.71360166927355662        0.00000000    
  -9.1252847692276526E-002  0.71157434738087666        0.00000000    
 -0.18205957294653843       0.70405025597433435        0.00000000    
 -0.27157966828437630       0.69227940282136446        0.00000000    
 -0.35974181183960291       0.67459259095849622        0.00000000    
 -0.44525093992185549       0.65206793834496268        0.00000000    
 -0.52843377139852055       0.62277859794706258        0.00000000    
 -0.60743261534324311       0.58761483283301574        0.00000000    
 -0.68304565956824992       0.54439631855789972        0.00000000    
 -0.75267536249112166       0.49373525148023423        0.00000000    
 -0.81771295676826772       0.43330229473471921        0.00000000    
 -0.87453262680354016       0.36319356881840070        0.00000000    
 -0.92522056559234422       0.28129728623752032        0.00000000    
 -0.96466613951652314       0.18669469748125228        0.00000000    
 -0.99540561578751707        7.8559992841194415E-002   0.00000000    
  -1.0103192137682422       -4.5749256533939638E-002   0.00000000    
  -1.0107717593890466      -0.18284298697401058        0.00000000    
 -0.98887013252646006      -0.33625790956281693        0.00000000    
 -0.94241990309749435      -0.49400325223128710        0.00000000    
 -0.86950693107308408      -0.65672800507574614        0.00000000    
 -0.76530997891193653      -0.80637184808202755        0.00000000    
 -0.64092799003973422      -0.93937690301075027        0.00000000    
 -0.49167630061230660       -1.0456147102745341        0.00000000    
 -0.33528692523549414       -1.1196507426651294        0.00000000    
 -0.16784138642328023       -1.1668866471251691        0.00000000    
  -8.8119430837664191E-007  -1.1786769841379063        0.00000000    
  0.16783963521507661       -1.1668868249826641        0.00000000    
  0.33528523243117797       -1.1196510867000158        0.00000000    
  0.49167468265706632       -1.0456151953405697        0.00000000    
  0.64092648193858692      -0.93937750279827603        0.00000000    
  0.76530858236703403      -0.80637252158173922        0.00000000    
  0.86950565966688476      -0.65672872764531942        0.00000000    
  0.94241874695839578      -0.49400398783323940        0.00000000    
  0.98886908883735913      -0.33625864581517612        0.00000000    
   1.0107708175315622      -0.18284370316276199        0.00000000    
   1.0103183672237810       -4.5749950929590250E-002   0.00000000    
  0.99540485763248177        7.8559329310117595E-002   0.00000000    
  0.96466546358735084       0.18669406321426721        0.00000000    
  0.92521996658242789       0.28129668571082095        0.00000000    
  0.87453209827659728       0.36319300016022821        0.00000000    
  0.81771249431423298       0.43330175909736995        0.00000000    
  0.75267496135104139       0.49373474562374020        0.00000000    
  0.68304531529054735       0.54439584168127697        0.00000000    
  0.60743232379278378       0.58761438223366080        0.00000000    
  0.52843352860429571       0.62277817152860537        0.00000000    
  0.44525074231792172       0.65206753285542740        0.00000000    
  0.35974165685333420       0.67459220274749898        0.00000000    
  0.27157955368929204       0.69227902956601683        0.00000000    
  0.18205949764698887       0.70404989381299121        0.00000000    
   9.1252810239347851E-002  0.71157399094207729        0.00000000    
   0.0000000000000000       0.71360131447505093        0.00000000    
   0.0000000000000000       0.80291588352720389        0.00000000    
  -8.6373115419732943E-002  0.79988715124761789        0.00000000    
 -0.17215433120122697       0.79232644814525799        0.00000000    
 -0.25711076416050510       0.77848079300818007        0.00000000    
 -0.34025642012603213       0.75970005433095023        0.00000000    
 -0.42173113822127561       0.73394537327374598        0.00000000    
 -0.50006927127766188       0.70242317962492962        0.00000000    
 -0.57585865410374748       0.66275952704846686        0.00000000    
 -0.64699894496746269       0.61600600843747488        0.00000000    
 -0.71468891571264059       0.55944628019974874        0.00000000    
 -0.77592246005055754       0.49386344927672193        0.00000000    
 -0.83278550219521386       0.41631616580772973        0.00000000    
 -0.88088017460234780       0.32695833908805094        0.00000000    
 -0.92350802536506815       0.22310810139591902        0.00000000    
 -0.95399045966087925       0.10336952984395065        0.00000000    
 -0.97664264562153180       -3.2991986921713748E-002   0.00000000    