 <VTKFile type="UnstructuredGrid" version="0.1" byte_order="BigEndian">
 <UnstructuredGrid>
 <Piece NumberOfPoints="        2601 " NumberOfCells="        2500 ">
 <PointData Scalars="scalars">
 <DataArray type="Float32" NumberOfComponents="3" Name="Velocity" Format="ascii">
   0.0000000000000000        0.0000000000000000        0.00000000    
  -8.7261030490690228E-002   0.0000000000000000        0.00000000    
 -0.17353394728487745        0.0000000000000000        0.00000000    
 -0.25820550577741203        0.0000000000000000        0.00000000    
 -0.33988794204155770        0.0000000000000000        0.00000000    
 -0.41829205641186429        0.0000000000000000        0.00000000    
 -0.49164148068839403        0.0000000000000000        0.00000000    
 -0.55990109442098890        0.0000000000000000        0.00000000    
 -0.62096814653308208        0.0000000000000000        0.00000000    
 -0.67498120779416326        0.0000000000000000        0.00000000    
 -0.71964455388879367        0.0000000000000000        0.00000000    
 -0.75519546241914592        0.0000000000000000        0.00000000    
 -0.77936692059244483        0.0000000000000000        0.00000000    
 -0.79245071451760485        0.0000000000000000        0.00000000    
 -0.79251549010006772        0.0000000000000000        0.00000000    
 -0.77992296244849879        0.0000000000000000        0.00000000    
 -0.75342414564147575        0.0000000000000000        0.00000000    
 -0.71354084968275822        0.0000000000000000        0.00000000    
 -0.65999608673720855        0.0000000000000000        0.00000000    
 -0.59361875548895726        0.0000000000000000        0.00000000    
 -0.51521785904838757        0.0000000000000000        0.00000000    
 -0.42607807810080983        0.0000000000000000        0.00000000    
 -0.32796001341691100        0.0000000000000000        0.00000000    
 -0.22268007931205500        0.0000000000000000        0.00000000    
 -0.11259863899456142        0.0000000000000000        0.00000000    
  -5.7882507037242341E-007   0.0000000000000000        0.00000000    
  0.11259749362130049        0.0000000000000000        0.00000000    
  0.22267894059186411        0.0000000000000000        0.00000000    
  0.32795890449911463        0.0000000000000000        0.00000000    
  0.42607699250686676        0.0000000000000000        0.00000000    
  0.51521681691902066        0.0000000000000000        0.00000000    
  0.59361774954922286        0.0000000000000000        0.00000000    
  0.65999513277482258        0.0000000000000000        0.00000000    
  0.71353994058705050        0.0000000000000000        0.00000000    
  0.75342329257633811        0.0000000000000000        0.00000000    
  0.77992215818618305        0.0000000000000000        0.00000000    
  0.79251474193504090        0.0000000000000000        0.00000000    
  0.79245001756465827        0.0000000000000000        0.00000000    
  0.77936627951605286        0.0000000000000000        0.00000000    
  0.75519487299253796        0.0000000000000000        0.00000000    
  0.71964401939329425        0.0000000000000000        0.00000000    
  0.67498072474447157        0.0000000000000000        0.00000000    
  0.62096771789828842        0.0000000000000000        0.00000000    
  0.55990071794978791        0.0000000000000000        0.00000000    
  0.49164115766980709        0.0000000000000000        0.00000000    
  0.41829178622247620        0.0000000000000000        0.00000000    
  0.33988772600667944        0.0000000000000000        0.00000000    
  0.25820534349478530        0.0000000000000000        0.00000000    
  0.17353383922644730        0.0000000000000000        0.00000000    
   8.7260976403216450E-002   0.0000000000000000        0.00000000    
   0.0000000000000000        0.0000000000000000        0.00000000    
   0.0000000000000000        8.7407739893756109E-002   0.00000000    
  -8.7157963260564575E-002   8.7012723800270433E-002   0.00000000    
 -0.17352667625510793        8.5630375716687801E-002   0.00000000    
 -0.25792238148482216        8.3438357365184762E-002   0.00000000    
 -0.33991143094481180        8.0234597078690503E-002   0.00000000    
 -0.41790639139744190        7.6165945730234705E-002   0.00000000    
 -0.49176797961630975        7.1046533698553169E-002   0.00000000    
 -0.55953788044821329        6.4984446709521151E-002   0.00000000    
 -0.62129402973223702        5.7840219090450784E-002   0.00000000    
 -0.67480039175159379        4.9680667167243828E-002   0.00000000    
 -0.72026987336158077        4.0453621732818835E-002   0.00000000    
 -0.75536347978825669        3.0192352692874277E-002   0.00000000    
 -0.78036196763948240        1.8979050748606965E-002   0.00000000    
 -0.79309180868162577        6.8360396717955388E-003   0.00000000    
 -0.79387906663205643       -5.9825529016040357E-003   0.00000000    
 -0.78105850163255730       -1.9429088614370461E-002   0.00000000    
 -0.75505065454338627       -3.3076126385893259E-002   0.00000000    
 -0.71504339201715483       -4.6812985304576844E-002   0.00000000    
 -0.66167581571164114       -6.0097909246476670E-002   0.00000000    
 -0.59521554773208318       -7.2738247207737319E-002   0.00000000    
 -0.51668248874104206       -8.4194267222290786E-002   0.00000000    
 -0.42741879018071904       -9.4207772844945303E-002   0.00000000    
 -0.32895577219486161      -0.10237187167053316        0.00000000    
 -0.22344474847844698      -0.10841764901661315        0.00000000    
 -0.11295094057647576      -0.11215616274531776        0.00000000    
  -5.7814577167037886E-007 -0.11339082375240478        0.00000000    
  0.11294978148177146      -0.11215617221903756        0.00000000    
  0.22344361105305208      -0.10841766786527000        0.00000000    
  0.32895465043956057      -0.10237189829436419        0.00000000    
  0.42741770604930646       -9.4207807168853241E-002   0.00000000    
  0.51668143542369116       -8.4194307177017813E-002   0.00000000    
  0.59521454311165167       -7.2738292139557487E-002   0.00000000    
  0.66167485248115809       -6.0097957681949622E-002   0.00000000    
  0.71504248392646597       -4.6813036875569751E-002   0.00000000    
  0.75504979422867424       -3.3076178621441084E-002   0.00000000    
  0.78105769818616755       -1.9429142049958891E-002   0.00000000    
  0.79387831376801488       -5.9826061456444406E-003   0.00000000    
  0.79309111227124007        6.8359852501095114E-003   0.00000000    
  0.78036132299690930        1.8978997525936042E-002   0.00000000    
  0.75536289044958138        3.0192298961873965E-002   0.00000000    
  0.72026933564116669        4.0453568914460517E-002   0.00000000    
  0.67479990871085604        4.9680613860130604E-002   0.00000000    
  0.62129359873262080        5.7840165941556811E-002   0.00000000    
  0.55953750330089047        6.4984393842541274E-002   0.00000000    
  0.49176765510976067        7.1046480472158460E-002   0.00000000    
  0.41790612103875063        7.6165891979585995E-002   0.00000000    
  0.33991121423282422        8.0234543028139288E-002   0.00000000    
  0.25792221913348462        8.3438303302849126E-002   0.00000000    
  0.17352656779789427        8.5630321660716727E-002   0.00000000    
   8.7157909040078113E-002   8.7012669648571878E-002   0.00000000    
   0.0000000000000000        8.7407685737508470E-002   0.00000000    
   0.0000000000000000       0.17479776414381384        0.00000000    
  -8.7036457339472795E-002  0.17381852840406622        0.00000000    
 -0.17310402897906685       0.17126226384605323        0.00000000    
 -0.25762202882353852       0.16672158191945666        0.00000000    
 -0.33920699608056248       0.16052679638568806        0.00000000    
 -0.41761575906928378       0.15227887604123741        0.00000000    
 -0.49105672139148182       0.14223755932793691        0.00000000    
 -0.55955382889219618       0.13006183339285454        0.00000000    
 -0.62096195418517097       0.11592850987460698        0.00000000    
 -0.67548744309721398        9.9625628381727033E-002   0.00000000    
 -0.72075696660441224        8.1249065307510457E-002   0.00000000    
 -0.75707279373369163        6.0807740195509309E-002   0.00000000    
 -0.78205350248902816        3.8344255695557231E-002   0.00000000    
 -0.79603442042388772        1.4182987179287763E-002   0.00000000    
 -0.79694876481807042       -1.1626506496607916E-002   0.00000000    
 -0.78516132510943215       -3.8391750591192465E-002   0.00000000    
 -0.75930646016617276       -6.5974789349477703E-002   0.00000000    
 -0.71986129101872398       -9.3365369244083382E-002   0.00000000    
 -0.66650301175416926      -0.12026999813433482        0.00000000    
 -0.59998091308728974      -0.14554714425218732        0.00000000    
 -0.52115991734471590      -0.16873804600861955        0.00000000    
 -0.43124078400970928      -0.18884544862325342        0.00000000    
 -0.33212098770332132      -0.20531563422775373        0.00000000    
 -0.22556738856072453      -0.21753713435402253        0.00000000    
 -0.11409251708720734      -0.22500398256267731        0.00000000    
  -5.9159870927028954E-007 -0.22758391797233485        0.00000000    
  0.11409134679185412      -0.22500400213529759        0.00000000    
  0.22556622543607743      -0.21753717194379635        0.00000000    
  0.33211985584857157      -0.20531568905045416        0.00000000    
  0.43123967733815999      -0.18884551755538248        0.00000000    
  0.52115885618899016      -0.16873812768500360        0.00000000    
  0.59997989006783159      -0.14554723429553662        0.00000000    
  0.66650204267504276      -0.12027009678855143        0.00000000    
  0.71986036805065357       -9.3365471847179596E-002   0.00000000    
  0.75930559488400395       -6.5974896014791798E-002   0.00000000    
  0.78516051056940295       -3.8391857207470931E-002   0.00000000    
  0.79694800811465183       -1.1626614978906996E-002   0.00000000    
  0.79603371583612448        1.4182879426556629E-002   0.00000000    
  0.78205285437962158        3.8344147557774030E-002   0.00000000    
  0.75707219792259939        6.0807633777418588E-002   0.00000000    
  0.72075642615161462        8.1248958199698781E-002   0.00000000    
  0.67548695509279921        9.9625522236019573E-002   0.00000000    
  0.62096152040884267       0.11592840329511163        0.00000000    
  0.55955344808012841       0.13006172713993416        0.00000000    
  0.49105639516829325       0.14223745225784329        0.00000000    
  0.41761548649564317       0.15227876833689510        0.00000000    
  0.33920677825923323       0.16052668788982913        0.00000000    
  0.25762186514813185       0.16672147379587104        0.00000000    
  0.17310391983296353       0.17126215542791876        0.00000000    
   8.7036402697160564E-002  0.17381841987402674        0.00000000    
   0.0000000000000000       0.17479765550312262        0.00000000    
   0.0000000000000000       0.26174527228625794        0.00000000    
  -8.6677184212839223E-002  0.26058600862491677        0.00000000    
 -0.17261632225719548       0.25650283984243594        0.00000000    
 -0.25665789587275178       0.25004192566581918        0.00000000    
 -0.33844579109847456       0.24058066057862654        0.00000000    
 -0.41638400969040895       0.22857333837764948        0.00000000    
 -0.49043826715700911       0.21343966037723405        0.00000000    
 -0.55859631827418499       0.19551623378047076        0.00000000    
 -0.62106585973387984       0.17435311722590136        0.00000000    
 -0.67549400355978728       0.15015599369049121        0.00000000    
 -0.72223416479716118       0.12272972242673547        0.00000000    
 -0.75875368588247860        9.2163767610809022E-002   0.00000000    
 -0.78545378248896813        5.8670367431750206E-002   0.00000000    
 -0.79989939910249930        2.2284742121883496E-002   0.00000000    
 -0.80247447533849892       -1.6237511343182534E-002   0.00000000    
 -0.79123955944374924       -5.6801773795097842E-002   0.00000000    
 -0.76657716472903759       -9.8080700857364880E-002   0.00000000    
 -0.72749128372166394      -0.13978918500540288        0.00000000    
 -0.67448885227552791      -0.18020557254346783        0.00000000    
 -0.60784551544762089      -0.21877568682071383        0.00000000    
 -0.52840005434437032      -0.25377464367123187        0.00000000    
 -0.43771232650575209      -0.28441439725430856        0.00000000    
 -0.33715772820979839      -0.30941976664681314        0.00000000    
 -0.22921282338931451      -0.32793019352592295        0.00000000    
 -0.11589348316162770      -0.33940382339849523        0.00000000    
  -6.0383181749959745E-007 -0.34316757068066212        0.00000000    
  0.11589227279699264      -0.33940385317218646        0.00000000    
  0.22921163703743744      -0.32793025209808235        0.00000000    
  0.33715656034869079      -0.30941985024779911        0.00000000    
  0.43771120036972272      -0.28441450431642429        0.00000000    
  0.52839896289763844      -0.25377476742275201        0.00000000    
  0.60784447756365567      -0.21877582648795271        0.00000000    
  0.67448785976827541      -0.18020572089083878        0.00000000    
  0.72749034958018943      -0.13978934239216956        0.00000000    
  0.76657628122312604       -9.8080861060469635E-002   0.00000000    
  0.79123873568634751       -5.6801937364224737E-002   0.00000000    
  0.80247370449866795       -1.6237673626808811E-002   0.00000000    
  0.79989868629360528        2.2284578023899108E-002   0.00000000    
  0.78545312303463410        5.8670205806311673E-002   0.00000000    
  0.75875308314056711        9.2163605669650026E-002   0.00000000    
  0.72223361550641807       0.12272956203253940        0.00000000    
  0.67549350978110168       0.15015583287074097        0.00000000    
  0.62106541980345753       0.17435295724411051        0.00000000    
  0.55859593336365088       0.19551607294571050        0.00000000    
  0.49043793635712096       0.21343949918946806        0.00000000    
  0.41638373437461401       0.22857317565735225        0.00000000    
  0.33844557033954842       0.24058049778955584        0.00000000    
  0.25665773002311443       0.25004176278024920        0.00000000    
  0.17261621143766842       0.25650267662688625        0.00000000    
   8.6677128809606846E-002  0.26058584497222104        0.00000000    
   0.0000000000000000       0.26174510872269235        0.00000000    
   0.0000000000000000       0.34859034498269070        0.00000000    
  -8.6250485118199910E-002  0.34666989075209925        0.00000000    
 -0.17158816778144340       0.34169706382136750        0.00000000    
 -0.25552639970106239       0.33282879199935128        0.00000000    
 -0.33669609282971541       0.32075266708854533        0.00000000    
 -0.41498851149670779       0.30463325238948674        0.00000000    
 -0.48857116100227094       0.28501793609968773        0.00000000    
 -0.55764520646544680       0.26117133560643568        0.00000000    
 -0.61994515444554277       0.23346878506388014        0.00000000    
 -0.67588955708917264       0.20141415025160780        0.00000000    
 -0.72287605728770843       0.16519950420332669        0.00000000    
 -0.76142343420321379       0.12476215805054028        0.00000000    
 -0.78879827106238287        8.0148183320577465E-002   0.00000000    
 -0.80549727244949854        3.1952814178061034E-002   0.00000000    
 -0.80901759992926991       -1.9808911435794985E-002   0.00000000    
 -0.79975969823715243       -7.3721925984106068E-002   0.00000000    
 -0.77596492938870953      -0.12961644892757226        0.00000000    
 -0.73798232961110788      -0.18532065714760393        0.00000000    
 -0.68532743047374578      -0.24033017258096906        0.00000000    
 -0.61848930934087576      -0.29213128864032051        0.00000000    
 -0.53852773958366196      -0.33982481869291947        0.00000000    
 -0.44634718577041932      -0.38123125157423154        0.00000000    
 -0.34432529783635146      -0.41517814791580532        0.00000000    
 -0.23402518564816180      -0.44041557966202166        0.00000000    
 -0.11847613243386559      -0.45578558203444097        0.00000000    
  -6.3113027830786505E-007 -0.46115294435404569        0.00000000    
  0.11847488481785223      -0.45578562375166670        0.00000000    
  0.23402394781213043      -0.44041566008339367        0.00000000    
  0.34432409698016575      -0.41517826513818440        0.00000000    
  0.44634601575678823      -0.38123139758259378        0.00000000    
  0.53852662241268068      -0.33982499103012981        0.00000000    
  0.61848823649670737      -0.29213147761145136        0.00000000    
  0.68532641809302719      -0.24033037746460051        0.00000000    
  0.73798136923218682      -0.18532086836568495        0.00000000    
  0.77596403096390665      -0.12961666788903239        0.00000000    
  0.79975885401560320       -7.3722144746638268E-002   0.00000000    
  0.80901681658937952       -1.9809132325233649E-002   0.00000000    
  0.80549654383094449        3.1952595933622145E-002   0.00000000    
  0.78879760082953854        8.0147964101336233E-002   0.00000000    
  0.76142281901217768       0.12476194194896302        0.00000000    
  0.72287549901014958       0.16519928760491626        0.00000000    
  0.67588905383159759       0.20141393510404251        0.00000000    
  0.61994470757443287       0.23346856917518913        0.00000000    
  0.55764481489998130       0.26117112035305551        0.00000000    
  0.48857082576010252       0.28501771889661265        0.00000000    
  0.41498823170754390       0.30463303474741416        0.00000000    
  0.33669586872988971       0.32075244897505722        0.00000000    
  0.25552623142632391       0.33282857370383745        0.00000000    
  0.17158805563801990       0.34169684485435059        0.00000000    
   8.6250428956103742E-002  0.34666967145326283        0.00000000    
   0.0000000000000000       0.34859012549995155        0.00000000    
   0.0000000000000000       0.43442899803246776        0.00000000    
  -8.5496950854218434E-002  0.43257989816139686        0.00000000    
 -0.17035241093855233       0.42598142329903010        0.00000000    
 -0.25345491478561433       0.41558639230207017        0.00000000    
 -0.33459481062311081       0.40030587873190870        0.00000000    
 -0.41216526337823411       0.38094413487942674        0.00000000    
 -0.48633589344373246       0.35646155419872788        0.00000000    
 -0.55499914675072914       0.32746623684717263        0.00000000    
 -0.61862786853176222       0.29310377185546915        0.00000000    
 -0.67464909278995711       0.25374600794772034        0.00000000    
 -0.72372592699009330       0.20893219568326218        0.00000000    
 -0.76293841314552857       0.15879054342082766        0.00000000    
 -0.79298453090230603       0.10354196317777306        0.00000000    
 -0.81086970014248261        4.3144414170152440E-002   0.00000000    
 -0.81716015340481196       -2.1188524775396889E-002   0.00000000    
 -0.80928608583015449       -8.9473077825402786E-002   0.00000000    
 -0.78759556267996678      -0.15934938818632660        0.00000000    
 -0.75063877002898982      -0.23052591162607344        0.00000000    
 -0.69864589924359399      -0.29977149211998649        0.00000000    
 -0.63190312763582523      -0.36626966832085289        0.00000000    
 -0.55081773198792672      -0.42673221306301862        0.00000000    
 -0.45750027284116329      -0.47982068100563080        0.00000000    
 -0.35290410799615857      -0.52320558354386937        0.00000000    
 -0.24031589564183636      -0.55527528242262925        0.00000000    
 -0.12153864511822285      -0.57525099756273601        0.00000000    
  -6.5731924687357174E-007 -0.58169983304868245        0.00000000    
  0.12153732851724502      -0.57525105196203175        0.00000000    
  0.24031460891458956      -0.55527538981563207        0.00000000    
  0.35290284615559225      -0.52320573566115292        0.00000000    
  0.45749906250637956      -0.47982087446741517        0.00000000    
  0.55081656533576084      -0.42673243447208126        0.00000000    
  0.63190202428229925      -0.36626991584557156        0.00000000    
  0.69864484973222418      -0.29977175275563983        0.00000000    
  0.75063778663981873      -0.23052618521611659        0.00000000    
  0.78759463614033853      -0.15934966357948502        0.00000000    
  0.80928522314027340       -8.9473358209224932E-002   0.00000000    
  0.81715934754059727       -2.1188801750866692E-002   0.00000000    
  0.81086895587058294        4.3144135698106413E-002   0.00000000    
  0.79298384362574215       0.10354168880510067        0.00000000    
  0.76293778446208182       0.15879026883777039        0.00000000    
  0.72372535511305913       0.20893192384645159        0.00000000    
  0.67464857864598826       0.25374573528552102        0.00000000    
  0.61862741113628428       0.29310350034646732        0.00000000    
  0.55499874726626930       0.32746596399745542        0.00000000    
  0.48633555105552129       0.35646128117245701        0.00000000    
  0.41216497789253559       0.38094386070504710        0.00000000    
  0.33459458202690190       0.40030560457191350        0.00000000    
  0.25345474318830025       0.41558611722909722        0.00000000    
  0.17035229652079059       0.42598114779861912        0.00000000    
   8.5496893740076144E-002  0.43257962211102208        0.00000000    
   0.0000000000000000       0.43442872202504307        0.00000000    
   0.0000000000000000       0.51994173676843980        0.00000000    
  -8.4587271858331883E-002  0.51715254567944535        0.00000000    
 -0.16834925064137465       0.51002737816242327        0.00000000    
 -0.25094234574932944       0.49723719913989006        0.00000000    
 -0.33102599307033909       0.47987977770574325        0.00000000    
 -0.40869970079843998       0.45661555752223382        0.00000000    
 -0.48207909511713687       0.42834131688051658        0.00000000    
 -0.55165405261721590       0.39382584367981988        0.00000000    
 -0.61498365253283227       0.35370364507120949        0.00000000    
 -0.67286165364643880       0.30704651558358426        0.00000000    
 -0.72232381375526800       0.25417183722218117        0.00000000    
 -0.76431947897556995       0.19476020474229075        0.00000000    
 -0.79550858886382114       0.12880867998795029        0.00000000    
 -0.81677232504426533        5.7027749582240210E-002   0.00000000    
 -0.82477899497145934       -2.0773591707288486E-002   0.00000000    
 -0.82010186729672729      -0.10243806455259545        0.00000000    
 -0.80015496587098578      -0.18802068653396323        0.00000000    
 -0.76511413882015222      -0.27385109685404896        0.00000000    
 -0.71411023682876873      -0.35944194611220592        0.00000000    
 -0.64713108424191246      -0.44032000770460800        0.00000000    
 -0.56566145883860020      -0.51523576662567039        0.00000000    
 -0.46994957370302454      -0.58034534553996420        0.00000000    
 -0.36346638048803565      -0.63375915320057974        0.00000000    
 -0.24721522157319387      -0.67355996125583195        0.00000000    
 -0.12533590446591403      -0.69762176492506001        0.00000000    
  -7.0061894650253260E-007 -0.70620113624317138        0.00000000    
  0.12533452175709753      -0.69762183589093352        0.00000000    
  0.24721385379706315      -0.67356009688868645        0.00000000    
  0.36346506063666134      -0.63375934988943428        0.00000000    
  0.46994829555502948      -0.58034558763935229        0.00000000    
  0.56566024744876664      -0.51523604983789451        0.00000000    
  0.64712992990159912      -0.44032031377433251        0.00000000    
  0.71410915455518953      -0.35944227411173024        0.00000000    
  0.76511311767341195      -0.27385143032926174        0.00000000    
  0.80015401406720044      -0.18802102823443589        0.00000000    
  0.82010097619575750      -0.10243840318166454        0.00000000    
  0.82477816892187705       -2.0773932314550908E-002   0.00000000    
  0.81677155802586943        5.7027414118490397E-002   0.00000000    
  0.79550788299963315       0.12880834445745259        0.00000000    
  0.76431883228723163       0.19475987354810084        0.00000000    
  0.72232322661910320       0.25417150563793123        0.00000000    
  0.67286112532210951       0.30704618612393503        0.00000000    
  0.61498318360888982       0.35370331421079421        0.00000000    
  0.55165364250505111       0.39382551345873290        0.00000000    
  0.48207874376774773       0.42834098536660586        0.00000000    
  0.40869940813516892       0.45661522624687695        0.00000000    
  0.33102575887265423       0.47987944529166404        0.00000000    
  0.25094217026495008       0.49723686660881578        0.00000000    
  0.16834913355049608       0.51002704454707493        0.00000000    
   8.4587213212301657E-002  0.51715221199555428        0.00000000    
   0.0000000000000000       0.51994140263437372        0.00000000    
   0.0000000000000000       0.60366524431447055        0.00000000    
  -8.3222274276521430E-002  0.60123968725028676        0.00000000    
 -0.16593163034176944       0.59241267399769615        0.00000000    
 -0.24708686689231427       0.57860133753700060        0.00000000    
 -0.32667209825592691       0.55818561930089983        0.00000000    
 -0.40307968375256442       0.53239211046563706        0.00000000    
 -0.47675989467715379       0.49962546840857219        0.00000000    
 -0.54549551650964367       0.46085337065132093        0.00000000    
 -0.61015456289463033       0.41466586071246503        0.00000000    
 -0.66787687341993796       0.36168570766572733        0.00000000    
 -0.71984606692677122       0.30096509131418492        0.00000000    
 -0.76258062036264085       0.23269826132008706        0.00000000    
 -0.79736934698626594       0.15684954791321187        0.00000000    
 -0.82030260528114718        7.3184963063846267E-002   0.00000000    
 -0.83242961088814504       -1.6796046961231603E-002   0.00000000    
 -0.83000101998609987      -0.11352024695215276        0.00000000    
 -0.81347456111045791      -0.21341078757700738        0.00000000    
 -0.78042044101088559      -0.31655486865751847        0.00000000    
 -0.73065224320693967      -0.41750920326190610        0.00000000    
 -0.66441113745646496      -0.51547194118223716        0.00000000    
 -0.58127508870392763      -0.60468844213120310        0.00000000    
 -0.48455730691360799      -0.68332127493070982        0.00000000    
 -0.37425187705110635      -0.74757078639268759        0.00000000    
 -0.25540850142933785      -0.79484180446650210        0.00000000    
 -0.12912277637923020      -0.82450390641803062        0.00000000    
  -7.4292949185151423E-007 -0.83377517547274349        0.00000000    
  0.12912128964625252      -0.82450399503900418        0.00000000    
  0.25540705500580652      -0.79484197768637099        0.00000000    
  0.37425046676337231      -0.74757102955509758        0.00000000    
  0.48455596539712525      -0.68332158103115803        0.00000000    
  0.58127380713114485      -0.60468878804424064        0.00000000    
  0.66440993657594460      -0.51547232229291484        0.00000000    
  0.73065111052358100      -0.41750959648438096        0.00000000    
  0.78041938583991821      -0.31655527554899554        0.00000000    
  0.81347357252550712      -0.21341119179018928        0.00000000    
  0.83000010208242403      -0.11352065445258767        0.00000000    
  0.83242875587916132       -1.6796446643205155E-002   0.00000000    
  0.82030181472968988        7.3184563186109802E-002   0.00000000    
  0.79736861797466152       0.15684915410264780        0.00000000    
  0.76257995295631775       0.23269786762484782        0.00000000    
  0.71984546090098156       0.30096470129828762        0.00000000    
  0.66787632852866963       0.36168531669138376        0.00000000    
  0.61015407915297382       0.41466547081675736        0.00000000    
  0.54549509379832772       0.46085297962342270        0.00000000    
  0.47675953285559947       0.49962507804894923        0.00000000    
  0.40307938242854624       0.53239171885235359        0.00000000    
  0.32667185795646814       0.55818522773461610        0.00000000    
  0.24708668674332543       0.57860094529437156        0.00000000    
  0.16593151050483801       0.59241228138835922        0.00000000    
   8.3222214538015857E-002  0.60123929401712484        0.00000000    
   0.0000000000000000       0.60366485134515424        0.00000000    
   0.0000000000000000       0.68663929036393245        0.00000000    
  -8.1591391329919813E-002  0.68308034921873872        0.00000000    
 -0.16246613558512024       0.67415715481075966        0.00000000    
 -0.24244835190936856       0.65799535113088459        0.00000000    
 -0.32024609951940380       0.63617562634791858        0.00000000    
 -0.39620640643418692       0.60677103564885071        0.00000000    
 -0.46840671712688298       0.57112810483712695        0.00000000    
 -0.53770386198936349       0.52738453817083686        0.00000000    
 -0.60147089387600794       0.47656180884591021        0.00000000    
 -0.66103684942988561       0.41707905941981582        0.00000000    
 -0.71299642717792322       0.34950154455401827        0.00000000    
 -0.75902468945859713       0.27292565325793705        0.00000000    
 -0.79493281163315799       0.18732003373658157        0.00000000    
 -0.82242041963227974        9.3136367751775417E-002   0.00000000    
 -0.83679054298095079       -1.0249299707638862E-002   0.00000000    
 -0.83920628800341801      -0.12007882192068570        0.00000000    