 <VTKFile type="UnstructuredGrid" version="0.1" byte_order="BigEndian">
 <UnstructuredGrid>
 <Piece NumberOfPoints="        2601 " NumberOfCells="        2500 ">
 <PointData Scalars="scalars">
 <DataArray type="Float32" NumberOfComponents="3" Name="Velocity" Format="ascii">
   0.0000000000000000        0.0000000000000000        0.00000000    
  -4.6491345859980653E-002   0.0000000000000000        0.00000000    
  -9.2297145678862783E-002   0.0000000000000000        0.00000000    
 -0.13694000412983057        0.0000000000000000        0.00000000    
 -0.17954765645439497        0.0000000000000000        0.00000000    
 -0.21985784820663262        0.0000000000000000        0.00000000    
 -0.25685051386668500        0.0000000000000000        0.00000000    
 -0.29047498751639300        0.0000000000000000        0.00000000    
 -0.31962123945269888        0.0000000000000000        0.00000000    
 -0.34444021829231591        0.0000000000000000        0.00000000    
 -0.36380755231011036        0.0000000000000000        0.00000000    
 -0.37806304634365023        0.0000000000000000        0.00000000    
 -0.38615671473242791        0.0000000000000000        0.00000000    
 -0.38860397915497663        0.0000000000000000        0.00000000    
 -0.38452229718703146        0.0000000000000000        0.00000000    
 -0.37458908997081131        0.0000000000000000        0.00000000    
 -0.35817433644519669        0.0000000000000000        0.00000000    
 -0.33610087752800399        0.0000000000000000        0.00000000    
 -0.30805461488489860        0.0000000000000000        0.00000000    
 -0.27497939106228858        0.0000000000000000        0.00000000    
 -0.23690715220711883        0.0000000000000000        0.00000000    
 -0.19486482158216184        0.0000000000000000        0.00000000    
 -0.14922139441870996        0.0000000000000000        0.00000000    
 -0.10103135171136640        0.0000000000000000        0.00000000    
  -5.0954744868776360E-002   0.0000000000000000        0.00000000    
  -3.9557279199093352E-007   0.0000000000000000        0.00000000    
   5.0953957518783823E-002   0.0000000000000000        0.00000000    
  0.10103056867012571        0.0000000000000000        0.00000000    
  0.14922062317807036        0.0000000000000000        0.00000000    
  0.19486406256000635        0.0000000000000000        0.00000000    
  0.23690641234985924        0.0000000000000000        0.00000000    
  0.27497867050041919        0.0000000000000000        0.00000000    
  0.30805391967676465        0.0000000000000000        0.00000000    
  0.33610020768226195        0.0000000000000000        0.00000000    
  0.35817369716481812        0.0000000000000000        0.00000000    
  0.37458848097625169        0.0000000000000000        0.00000000    
  0.38452172300927778        0.0000000000000000        0.00000000    
  0.38860343931453095        0.0000000000000000        0.00000000    
  0.38615621272887873        0.0000000000000000        0.00000000    
  0.37806258194045483        0.0000000000000000        0.00000000    
  0.36380712792743347        0.0000000000000000        0.00000000    
  0.34443983356678198        0.0000000000000000        0.00000000    
  0.31962089639270763        0.0000000000000000        0.00000000    
  0.29047468565810891        0.0000000000000000        0.00000000    
  0.25685025449203125        0.0000000000000000        0.00000000    
  0.21985763109065407        0.0000000000000000        0.00000000    
  0.17954748265575662        0.0000000000000000        0.00000000    
  0.13693987333362218        0.0000000000000000        0.00000000    
   9.2297058483336719E-002   0.0000000000000000        0.00000000    
   4.6491302148869623E-002   0.0000000000000000        0.00000000    
   0.0000000000000000        0.0000000000000000        0.00000000    
   0.0000000000000000        4.6680536155910161E-002   0.00000000    
  -4.6576440585770700E-002   4.6388709210464771E-002   0.00000000    
  -9.2570373769409520E-002   4.5412482622202079E-002   0.00000000    
 -0.13719780846947394        4.3859269210799808E-002   0.00000000    
 -0.18009108534694732        4.1643118406082986E-002   0.00000000    
 -0.22029434492427136        3.8871791048223921E-002   0.00000000    
 -0.25765548804921673        3.5483475430718170E-002   0.00000000    
 -0.29109506897548598        3.1582036419920460E-002   0.00000000    
 -0.32066874089675046        2.7139344139537766E-002   0.00000000    
 -0.34524079931765222        2.2253149293995526E-002   0.00000000    
 -0.36506236170840312        1.6937202603163476E-002   0.00000000    
 -0.37902513780029146        1.1282522399140710E-002   0.00000000    
 -0.38756213054307453        5.3495928517281188E-003   0.00000000    
 -0.38968579144713228       -7.7721406666340096E-004   0.00000000    
 -0.38599755471492803       -6.9912519604531194E-003   0.00000000    
 -0.37572276214544509       -1.3215295822256166E-002   0.00000000    
 -0.35961680389892375       -1.9303964710235183E-002   0.00000000    
 -0.33719520603262776       -2.5189641468655159E-002   0.00000000    
 -0.30934794243018021       -3.0702434862256156E-002   0.00000000    
 -0.27592961987354403       -3.5789662157065735E-002   0.00000000    
 -0.23793484869392439       -4.0275899085708500E-002   0.00000000    
 -0.19556835892280011       -4.4131472950385144E-002   0.00000000    
 -0.14988341722614557       -4.7195447953992477E-002   0.00000000    
 -0.10140600534874808       -4.9470558949582459E-002   0.00000000    
  -5.1183400767953212E-002  -5.0827205002809274E-002   0.00000000    
  -3.9510653744491049E-007  -5.1308702577786226E-002   0.00000000    
   5.1182610817816519E-002  -5.0827209061339439E-002   0.00000000    
  0.10140522326961518       -4.9470567070808096E-002   0.00000000    
  0.14988264348876487       -4.7195459975121541E-002   0.00000000    
  0.19556760089266556       -4.4131488854988035E-002   0.00000000    
  0.23793410655844446       -4.0275918240658092E-002   0.00000000    
  0.27592890013328913       -3.5789684692733380E-002   0.00000000    
  0.30934724523978285       -3.0702460230184449E-002   0.00000000    
  0.33719453707108754       -2.5189669691978778E-002   0.00000000    
  0.35961616300500604       -1.9303995119900875E-002   0.00000000    
  0.37572215409349857       -1.3215328540384416E-002   0.00000000    
  0.38599697907026131       -6.9912864664146823E-003   0.00000000    
  0.38968525231770723       -7.7725041325555245E-004   0.00000000    
  0.38756162757416424        5.3495552009042496E-003   0.00000000    
  0.37902467383383692        1.1282483447150446E-002   0.00000000    
  0.36506193641262341        1.6937162863955212E-002   0.00000000    
  0.34524041494944552        2.2253108448483071E-002   0.00000000    
  0.32066839713338358        2.7139302714661830E-002   0.00000000    
  0.29109476736162943        3.1581994493573330E-002   0.00000000    
  0.25765522810525338        3.5483433203535961E-002   0.00000000    
  0.22029412796824224        3.8871748028790724E-002   0.00000000    
  0.18009091123826770        4.1643075260820353E-002   0.00000000    
  0.13719767787346657        4.3859225840954620E-002   0.00000000    
   9.2570286413327554E-002   4.5412439151433399E-002   0.00000000    
   4.6576396924630351E-002   4.6388665501870624E-002   0.00000000    
   0.0000000000000000        4.6680492492246747E-002   0.00000000    
   0.0000000000000000        9.3633717299306488E-002   0.00000000    
  -4.6933067186335962E-002   9.2946432961036482E-002   0.00000000    
  -9.3179396513429671E-002   9.1096418444978983E-002   0.00000000    
 -0.13826779383390753        8.7892562257446613E-002   0.00000000    
 -0.18131606395378225        8.3552769029808585E-002   0.00000000    
 -0.22207375328986376        7.7924485594440165E-002   0.00000000    
 -0.25950144657048241        7.1221013259985866E-002   0.00000000    
 -0.29356378648179776        6.3347814800824201E-002   0.00000000    
 -0.32312230657259128        5.4507152756338079E-002   0.00000000    
 -0.34834457343937614        4.4681060204923052E-002   0.00000000    
 -0.36807046960917111        3.4058144021443942E-002   0.00000000    
 -0.38265575843508698        2.2711038815940263E-002   0.00000000    
 -0.39101091588383002        1.0814619010126847E-002   0.00000000    
 -0.39366539250046395       -1.4627112269953262E-003   0.00000000    
 -0.38969841139889755       -1.3959581723320577E-002   0.00000000    
 -0.37979935875208287       -2.6419421269628752E-002   0.00000000    
 -0.36330708536976669       -3.8696681450220732E-002   0.00000000    
 -0.34105548404365849       -5.0468735323393063E-002   0.00000000    
 -0.31271141856762402       -6.1613282010619344E-002   0.00000000    
 -0.27923095106161555       -7.1776217722231361E-002   0.00000000    
 -0.24064162007775908       -8.0872058773607924E-002   0.00000000    
 -0.19798589042747397       -8.8556146332109772E-002   0.00000000    
 -0.15164215641237258       -9.4798064249475317E-002   0.00000000    
 -0.10268488653798799       -9.9301238723153093E-002   0.00000000    
  -5.1793500057364855E-002 -0.10210913077451106        0.00000000    
  -3.9728136395158486E-007 -0.10300149984747413        0.00000000    
   5.1792709410195537E-002 -0.10210913901153743        0.00000000    
  0.10268410031790649       -9.9301254963975433E-002   0.00000000    
  0.15164138222205908       -9.4798088522528065E-002   0.00000000    
  0.19798512853286809       -8.8556177987745441E-002   0.00000000    
  0.24064087756799774       -8.0872097457024839E-002   0.00000000    
  0.27923022813065523       -7.1776262703460894E-002   0.00000000    
  0.31271072126102695       -6.1613333107208575E-002   0.00000000    
  0.34105481239276758       -5.0468791702622529E-002   0.00000000    
  0.36330644477589163       -3.8696742828621677E-002   0.00000000    
  0.37979874885326942       -2.6419486556059045E-002   0.00000000    
  0.38969783647425882       -1.3959651042438166E-002   0.00000000    
  0.39366485207778090       -1.4627837776336188E-003   0.00000000    
  0.39101041350355137        1.0814543360425703E-002   0.00000000    
  0.38265529370763318        2.2710961207541760E-002   0.00000000    
  0.36807004501021467        3.4058064139467069E-002   0.00000000    
  0.34834418855480070        4.4680978860220072E-002   0.00000000    
  0.32312196321441633        5.4507069699406857E-002   0.00000000    
  0.29356348441813646        6.3347731062502577E-002   0.00000000    
  0.25950118723484417        7.1220928446856402E-002   0.00000000    
  0.22207353625927198        7.7924399867967342E-002   0.00000000    
  0.18131589001581414        8.3552682651606397E-002   0.00000000    
  0.13826766294171469        8.7892475562087721E-002   0.00000000    
   9.3179309309608022E-002   9.1096331371421285E-002   0.00000000    
   4.6933023479680251E-002   9.2946345663117519E-002   0.00000000    
   0.0000000000000000        9.3633629857165654E-002   0.00000000    
   0.0000000000000000       0.14091750224665306        0.00000000    
  -4.7447859434145853E-002  0.14004491006551123        0.00000000    
  -9.4318955290042902E-002  0.13711670182883159        0.00000000    
 -0.13981865566949248       0.13246171179005270        0.00000000    
 -0.18359824969544444       0.12581281848822723        0.00000000    
 -0.22467272185170878       0.11749793229721832        0.00000000    
 -0.26291820762915080       0.10732207968742549        0.00000000    
 -0.29720706663897956        9.5599281105950604E-002   0.00000000    
 -0.32762808912156544        8.2236562046949194E-002   0.00000000    
 -0.35298025725081061        6.7527418593828908E-002   0.00000000    
 -0.37354837017975639        5.1507126478583361E-002   0.00000000    
 -0.38814692818593288        3.4447234532165055E-002   0.00000000    
 -0.39723965465165056        1.6527637522239912E-002   0.00000000    
 -0.39975871582128819       -2.0008620947532382E-003   0.00000000    
 -0.39633166570186673       -2.0814133273268424E-002   0.00000000    
 -0.38611194565291002       -3.9682314092702654E-002   0.00000000    
 -0.36987741752041237       -5.8159262833690266E-002   0.00000000    
 -0.34709165182314694       -7.6042194127721258E-002   0.00000000    
 -0.31866688307374097       -9.2807331503565682E-002   0.00000000    
 -0.28443386255202147      -0.10829433075558648        0.00000000    
 -0.24541392766739686      -0.12196188684709373        0.00000000    
 -0.20181788214761984      -0.13371676900838075        0.00000000    
 -0.15473400661888806      -0.14306372721927940        0.00000000    
 -0.10471911166473388      -0.15000641690515290        0.00000000    
  -5.2864475411013342E-002 -0.15414865192042124        0.00000000    
  -3.9868723125418606E-007 -0.15561783487146916        0.00000000    
   5.2863678350971395E-002 -0.15414866438742833        0.00000000    
  0.10471832291405161      -0.15000644165244092        0.00000000    
  0.15473322661161543      -0.14306376375904659        0.00000000    
  0.20181711828790519      -0.13371681684056819        0.00000000    
  0.24541318010900923      -0.12196194504013352        0.00000000    
  0.28443313801701448      -0.10829439882937597        0.00000000    
  0.31866618169140121       -9.2807408284629425E-002   0.00000000    
  0.34709097946166528       -7.6042279499042145E-002   0.00000000    
  0.36987677383592721       -5.8159354954016883E-002   0.00000000    
  0.38611133555878119       -3.9682412922627884E-002   0.00000000    
  0.39633108894241820       -2.0814237357751193E-002   0.00000000    
  0.39975817597892693       -2.0009712990730752E-003   0.00000000    
  0.39723915107252922        1.6527524220570616E-002   0.00000000    
  0.38814646398295388        3.4447117546763356E-002   0.00000000    
  0.37354794490737869        5.1507006914505396E-002   0.00000000    
  0.35297987296863548        6.7527296226638833E-002   0.00000000    
  0.32762774550850160        8.2236437816987279E-002   0.00000000    
  0.29720676538473767        9.5599154887318821E-002   0.00000000    
  0.26291794839533350       0.10732195260615257        0.00000000    
  0.22467250538886435       0.11749780376286380        0.00000000    
  0.18359807580680021       0.12581268925107650        0.00000000    
  0.13981852512513701       0.13246158156357296        0.00000000    
   9.4318868046918761E-002  0.13711657129678589        0.00000000    
   4.7447815872375849E-002  0.14004477904755402        0.00000000    
   0.0000000000000000       0.14091737125611842        0.00000000    
   0.0000000000000000       0.18900284683159058        0.00000000    
  -4.8217781190390892E-002  0.18762647989046868        0.00000000    
  -9.5746348539651943E-002  0.18393606896455469        0.00000000    
 -0.14213467229549442       0.17753164225486689        0.00000000    
 -0.18647135030872963       0.16886043343756277        0.00000000    
 -0.22854338787961276       0.15759809988516027        0.00000000    
 -0.26725317217183292       0.14417845482664257        0.00000000    
 -0.30261379854927456       0.12839366320337928        0.00000000    
 -0.33340026612262402       0.11065094163808144        0.00000000    
 -0.35983277724339541        9.0898988880142764E-002   0.00000000    
 -0.38064137027053518        6.9513532495368777E-002   0.00000000    
 -0.39623224839124405        4.6631533846736795E-002   0.00000000    
 -0.40539332713586412        2.2598412283745071E-002   0.00000000    
 -0.40869785790739921       -2.2467772586995992E-003   0.00000000    
 -0.40510574424886814       -2.7586114614922941E-002   0.00000000    
 -0.39534260708871616       -5.2891923886847256E-002   0.00000000    
 -0.37864989591615156       -7.7875626678012719E-002   0.00000000    
 -0.35589351272392966      -0.10186671461685194        0.00000000    
 -0.32668117253680107      -0.12461865579212313        0.00000000    
 -0.29200342391661743      -0.14539251239909834        0.00000000    
 -0.25187522938010098      -0.16401057176365616        0.00000000    
 -0.20738342597156106      -0.17975467088431005        0.00000000    
 -0.15893742990415161      -0.19255443506429554        0.00000000    
 -0.10767045061847270      -0.20179632187927676        0.00000000    
  -5.4323518378837893E-002 -0.20755905415860387        0.00000000    
  -4.0287675415804523E-007 -0.20939336373286516        0.00000000    
   5.4322716775154475E-002 -0.20755907108985475        0.00000000    
  0.10766965372477739      -0.20179635518167130        0.00000000    
  0.15893664572945809      -0.19255448451136681        0.00000000    
  0.20738265487712862      -0.17975473503701644        0.00000000    
  0.25187447862522844      -0.16401065027706394        0.00000000    
  0.29200269355659725      -0.14539260357075726        0.00000000    
  0.32668046902258097      -0.12461875947378577        0.00000000    
  0.35589283590877657      -0.10186682880750346        0.00000000    
  0.37864925122228066       -7.7875750777289476E-002   0.00000000    
  0.39534199415600241       -5.2892056089340923E-002   0.00000000    
  0.40510516724556334       -2.7586254590929619E-002   0.00000000    
  0.40869731636986428       -2.2469229543582211E-003   0.00000000    
  0.40539282419387151        2.2598260614628610E-002   0.00000000    
  0.39623178332501802        4.6631377976867512E-002   0.00000000    
  0.38064094571277901        6.9513372376682744E-002   0.00000000    
  0.35983239281254487        9.0898825950446599E-002   0.00000000    
  0.33339992351851278       0.11065077547477005        0.00000000    
  0.30261349722338138       0.12839349528105082        0.00000000    
  0.26725291333602863       0.14417828493854709        0.00000000    
  0.22854317160042795       0.15759792883002946        0.00000000    
  0.18647117709493097       0.16886026108159627        0.00000000    
  0.14213454192528113       0.17753146895932281        0.00000000    
   9.5746261635573843E-002  0.18393589473420069        0.00000000    
   4.8217737671760852E-002  0.18762630550401110        0.00000000    
   0.0000000000000000       0.18900267212915001        0.00000000    
   0.0000000000000000       0.23770023181592115        0.00000000    
  -4.9108768990012978E-002  0.23625685737302637        0.00000000    
  -9.7654877544592539E-002  0.23138157950411026        0.00000000    
 -0.14482412190732621       0.22364491192162200        0.00000000    
 -0.19030924657186199       0.21257017804075201        0.00000000    
 -0.23306747733990121       0.19871983514762734        0.00000000    
 -0.27303601014984469       0.18173624739733057        0.00000000    
 -0.30898960703561540       0.16215130451888354        0.00000000    
 -0.34108879214599130       0.13978016257829676        0.00000000    
 -0.36799818716199723       0.11511288348931838        0.00000000    
 -0.39007560801758800        8.8186859936984566E-002   0.00000000    
 -0.40597445987200464        5.9449144330929321E-002   0.00000000    
 -0.41622456863291551        2.9193195893727656E-002   0.00000000    
 -0.41958853355150211       -2.1718588656421435E-003   0.00000000    
 -0.41674849629973920       -3.4091978998533869E-002   0.00000000    
 -0.40670482556630549       -6.6191662801165979E-002   0.00000000    
 -0.39027956606849712       -9.7692655172122972E-002   0.00000000    
 -0.36682582121007179      -0.12825861126098839        0.00000000    
 -0.33729675074654830      -0.15696696807288318        0.00000000    
 -0.30147400016202242      -0.18354349793706309        0.00000000    
 -0.26042740234729378      -0.20703317815316324        0.00000000    
 -0.21438394816720874      -0.22726612194687795        0.00000000    
 -0.16449786707587438      -0.24337386170034173        0.00000000    
 -0.11139477859943886      -0.25534576373815193        0.00000000    
  -5.6252973009362661E-002 -0.26249715121098932        0.00000000    
  -4.0613084313724135E-007 -0.26502975021069214        0.00000000    
   5.6252161019477671E-002 -0.26249717256386929        0.00000000    
  0.11139397549882192      -0.25534580621817132        0.00000000    
  0.16449707338773051      -0.24337392410126663        0.00000000    
  0.21438317167240950      -0.22726620341933623        0.00000000    
  0.26042664328752430      -0.20703327712141295        0.00000000    
  0.30147326590111889      -0.18354361384759862        0.00000000    
  0.33729604109650857      -0.15696709847233811        0.00000000    
  0.36682514184171827      -0.12825875571460205        0.00000000    
  0.39027891688199695       -9.7692811311578767E-002   0.00000000    
  0.40670421151679786       -6.6191829861632398E-002   0.00000000    
  0.41674791672120098       -3.4092154516951634E-002   0.00000000    
  0.41958799195113450       -2.1720424628333267E-003   0.00000000    
  0.41622406429001763        2.9193006273125318E-002   0.00000000    
  0.40597399535532352        5.9448948710558759E-002   0.00000000    
  0.39007518277271075        8.8186659788519431E-002   0.00000000    
  0.36799780341913946       0.11511267896047198        0.00000000    
  0.34108844937185512       0.13977995521866807        0.00000000    
  0.30898930653056983       0.16215109424555837        0.00000000    
  0.27303575171880096       0.18173603529613483        0.00000000    
  0.23306726166230213       0.19871962099552676        0.00000000    
  0.19030907362496413       0.21256996298566147        0.00000000    
  0.14482399223076511       0.22364469521127431        0.00000000    
   9.7654790939509531E-002  0.23138136215094007        0.00000000    
   4.9108725703309819E-002  0.23625663940555078        0.00000000    
   0.0000000000000000       0.23770001388915893        0.00000000    
   0.0000000000000000       0.28767721379857347        0.00000000    
  -5.0220534184175505E-002  0.28561032936686437        0.00000000    
  -9.9751280919746832E-002  0.28010611360317794        0.00000000    
 -0.14817980880897433       0.27051930049470047        0.00000000    
 -0.19454805734634706       0.25755031308728021        0.00000000    
 -0.23871214622985445       0.24066316942577914        0.00000000    
 -0.27947722471574737       0.22052767407179338        0.00000000    
 -0.31694563315916702       0.19678303176493717        0.00000000    
 -0.34974434906670732       0.17004748489517940        0.00000000    
 -0.37819101922401521       0.14020277356559513        0.00000000    
 -0.40082398113746992       0.10780849975554775        0.00000000    
 -0.41814286079054735        7.3046381640357191E-002   0.00000000    
 -0.42871771294673400        3.6422064965581105E-002   0.00000000    
 -0.43320143646174913       -1.5518956306726480E-003   0.00000000    
 -0.43033869476587161       -4.0413577531745584E-002   0.00000000    
 -0.42091728998262701       -7.9333997708587206E-002   0.00000000    
 -0.40400185511980719      -0.11788987283105051        0.00000000    
 -0.38050784468182169      -0.15500800855608415        0.00000000    
 -0.34993716647014783      -0.19031617942310480        0.00000000    
 -0.31332988197295775      -0.22262318287379010        0.00000000    
 -0.27068284789592301      -0.25164598661405424        0.00000000    
 -0.22314805773742225      -0.27623042026990646        0.00000000    
 -0.17119756794170249      -0.29624499694857398        0.00000000    
 -0.11605705968755874      -0.31071708849116497        0.00000000    
  -5.8583314036175969E-002 -0.31974024110270155        0.00000000    
  -4.1256576372367936E-007 -0.32262099227042312        0.00000000    
   5.8582493433702462E-002 -0.31974026725643401        0.00000000    
  0.11605624426091507      -0.31071714023543373        0.00000000    
  0.17119676646959187      -0.29624507345225370        0.00000000    
  0.22314727064655193      -0.27623051921420033        0.00000000    
  0.27068208309818959      -0.25164610783863411        0.00000000    
  0.31332913935396034      -0.22262332350560279        0.00000000    
  0.34993645276673035      -0.19031633862772665        0.00000000    
  0.38050715962780279      -0.15500818313562137        0.00000000    
  0.40400120379329629      -0.11789006275394555        0.00000000    
  0.42091667194371923       -7.9334199410216133E-002   0.00000000    
  0.43033811429761742       -4.0413790450626159E-002   0.00000000    
  0.43320089270253292       -1.5521165146160497E-003   0.00000000    
  0.42871720884115927        3.6421835720616511E-002   0.00000000    
  0.41814239583226093        7.3046146670837156E-002   0.00000000    
  0.40082355716362417       0.10780825869998327        0.00000000    
  0.37819063545811821       0.14020252823387339        0.00000000    
  0.34974400726494420       0.17004723540556571        0.00000000    
  0.31694533309043876       0.19678277961946491        0.00000000    
  0.27947696721562670       0.22052741920013016        0.00000000    
  0.23871193111347261       0.24066291290695563        0.00000000    
  0.19454788517327218       0.25755005472489856        0.00000000    
  0.14817967943449323       0.27051904102270730        0.00000000    
   9.9751194599357079E-002  0.28010585288607759        0.00000000    
   5.0220491027967565E-002  0.28561006828075064        0.00000000    
   0.0000000000000000       0.28767695254753162        0.00000000    
   0.0000000000000000       0.33844546516261115        0.00000000    
  -5.1388441428088377E-002  0.33645214312706451        0.00000000    
 -0.10224153166922184       0.32964922611215880        0.00000000    
 -0.15171992521639183       0.31888419874694396        0.00000000    
 -0.19958697106913187       0.30342179790296769        0.00000000    
 -0.24471498869458097       0.28408487985054592        0.00000000    
 -0.28714403750046563       0.26030117863035462        0.00000000    
 -0.32550008729740354       0.23283507319263436        0.00000000    
 -0.36006535522415045       0.20136051367253863        0.00000000    
 -0.38929407585972570       0.16656622197970511        0.00000000    
 -0.41366901723598870       0.12845403939971362        0.00000000    
 -0.43158497474072682        8.7636763895303227E-002   0.00000000    
 -0.44368449849471892        4.4507141577537879E-002   0.00000000    
 -0.44845183574936898       -3.8482862112599486E-004   0.00000000    
 -0.44665871925436890       -4.6235421704393577E-002   0.00000000    
 -0.43705034490587269       -9.2540851830499329E-002   0.00000000    
 -0.42051399735484635      -0.13813372202826363        0.00000000    
 -0.39621881144051718      -0.18255227687930542        0.00000000    
 -0.36516968409178885      -0.22439063937315726        0.00000000    
 -0.32707132916178949      -0.26325328536167242        0.00000000    
 -0.28305175798197746      -0.29768141364060730        0.00000000    
 -0.23337495351709389      -0.32740551240194571        0.00000000    
 -0.17928088402609715      -0.35111338951090054        0.00000000    
 -0.12151969029169364      -0.36874932352274858        0.00000000    
  -6.1395195006914545E-002 -0.37930517306087569        0.00000000    
  -4.1807141733925479E-007 -0.38303266484344423        0.00000000    
   6.1394359130036179E-002 -0.37930520400962248        0.00000000    
  0.12151886422158226      -0.36874938545459629        0.00000000    
  0.17928006845349315      -0.35111348027904676        0.00000000    
  0.23337415742959278      -0.32740563094811492        0.00000000    
  0.28305098170689685      -0.29768155736887475        0.00000000    
  0.32707058020395052      -0.26325345298577457        0.00000000    
  0.36516896200994681      -0.22439082737707322        0.00000000    
  0.39621812243621191      -0.18255248438648411        0.00000000    
  0.42051334085535630      -0.13813394525584674        0.00000000    
  0.43704972521883412       -9.2541090327496425E-002   0.00000000    
  0.44665813555188200       -4.6235671383118078E-002   0.00000000    
  0.44845129159233743       -3.8508899972146973E-004   0.00000000    
  0.44368399317397078        4.4506873337293716E-002   0.00000000    
  0.43158451027343581        8.7636487920313588E-002   0.00000000    
  0.41366859311441739       0.12845375801945119        0.00000000    
  0.38929369364348165       0.16656593485940113        0.00000000    
  0.36006501414752989       0.20136022286774286        0.00000000    
  0.32549978842892818       0.23283477842115910        0.00000000    
  0.28714378081522635       0.26030088163284398        0.00000000    
  0.24471477474011252       0.28408458034305439        0.00000000    
  0.19958679966034740       0.30342149704025634        0.00000000    
  0.15171979663839327       0.31888389614589524        0.00000000    
  0.10224144590578910       0.32964892265545009        0.00000000    
   5.1388398511202145E-002  0.33645183876982460        0.00000000    
   0.0000000000000000       0.33844516110959516        0.00000000    
   0.0000000000000000       0.39088188377233823        0.00000000    
  -5.2722274869223935E-002  0.38812746901870265        0.00000000    
 -0.10476095483898101       0.38086669867019796        0.00000000    
 -0.15576722747179644       0.36815242011225469        0.00000000    
 -0.20472220220912843       0.35097662496779608        0.00000000    
 -0.25159198674865529       0.32852888182528345        0.00000000    
 -0.29504604720439220       0.30174131292868667        0.00000000    
 -0.33532948868250767       0.27003545579650789        0.00000000    
 -0.37085530259829119       0.23425223868155348        0.00000000    
 -0.40209941492384377       0.19414835397657049        0.00000000    
 -0.42731414494293446       0.15046260295137359        0.00000000    
 -0.44715257714861056       0.10338361224319556        0.00000000    
 -0.45984973934964057        5.3558001406702291E-002   0.00000000    
 -0.46618775468413948        1.6706842828987962E-003   0.00000000    
 -0.46457175695364977       -5.1699028762171827E-002   0.00000000    
 -0.45588324683557085      -0.10537311122149820        0.00000000    