 <VTKFile type="UnstructuredGrid" version="0.1" byte_order="BigEndian">
 <UnstructuredGrid>
 <Piece NumberOfPoints="        2601 " NumberOfCells="        2500 ">
 <PointData Scalars="scalars">
 <DataArray type="Float32" NumberOfComponents="3" Name="Velocity" Format="ascii">
   0.0000000000000000        0.0000000000000000        0.00000000    
  -2.4746068797304861E-002   0.0000000000000000        0.00000000    
  -4.9095871407008579E-002   0.0000000000000000        0.00000000    
  -7.2787263263511537E-002   0.0000000000000000        0.00000000    
  -9.5308405368303428E-002   0.0000000000000000        0.00000000    
 -0.11654208422002334        0.0000000000000000        0.00000000    
 -0.13588744207680248        0.0000000000000000        0.00000000    
 -0.15337586000648781        0.0000000000000000        0.00000000    
 -0.16835166311604735        0.0000000000000000        0.00000000    
 -0.18099198379672510        0.0000000000000000        0.00000000    
 -0.19062693891771401        0.0000000000000000        0.00000000    
 -0.19757051602353171        0.0000000000000000        0.00000000    
 -0.20118335374349391        0.0000000000000000        0.00000000    
 -0.20190148520599827        0.0000000000000000        0.00000000    
 -0.19916160479118750        0.0000000000000000        0.00000000    
 -0.19350091745767259        0.0000000000000000        0.00000000    
 -0.18447441262190303        0.0000000000000000        0.00000000    
 -0.17269328834931494        0.0000000000000000        0.00000000    
 -0.15786541308805224        0.0000000000000000        0.00000000    
 -0.14064253196342866        0.0000000000000000        0.00000000    
 -0.12090839667294294        0.0000000000000000        0.00000000    
  -9.9316337365433452E-002   0.0000000000000000        0.00000000    
  -7.5934674095411089E-002   0.0000000000000000        0.00000000    
  -5.1375662798629207E-002   0.0000000000000000        0.00000000    
  -2.5885570963310952E-002   0.0000000000000000        0.00000000    
   7.7745167667870112E-006   0.0000000000000000        0.00000000    
   2.5901094372037949E-002   0.0000000000000000        0.00000000    
   5.1391084765140718E-002   0.0000000000000000        0.00000000    
   7.5949943705572259E-002   0.0000000000000000        0.00000000    
   9.9331380369644895E-002   0.0000000000000000        0.00000000    
  0.12092316362352676        0.0000000000000000        0.00000000    
  0.14065695175117088        0.0000000000000000        0.00000000    
  0.15787943875400176        0.0000000000000000        0.00000000    
  0.17270685325687377        0.0000000000000000        0.00000000    
  0.18448747300706500        0.0000000000000000        0.00000000    
  0.19351341230287566        0.0000000000000000        0.00000000    
  0.19917349448720684        0.0000000000000000        0.00000000    
  0.20191271521818477        0.0000000000000000        0.00000000    
  0.20119388918113301        0.0000000000000000        0.00000000    
  0.19758030994005366        0.0000000000000000        0.00000000    
  0.19063596133744376        0.0000000000000000        0.00000000    
  0.18100019539396264        0.0000000000000000        0.00000000    
  0.16835903941265726        0.0000000000000000        0.00000000    
  0.15338236979980369        0.0000000000000000        0.00000000    
  0.13589306637335472        0.0000000000000000        0.00000000    
  0.11654679971259835        0.0000000000000000        0.00000000    
   9.5312198499938522E-002   0.0000000000000000        0.00000000    
   7.2790118622952260E-002   0.0000000000000000        0.00000000    
   4.9097780977239165E-002   0.0000000000000000        0.00000000    
   2.4747024921464425E-002   0.0000000000000000        0.00000000    
   0.0000000000000000        0.0000000000000000        0.00000000    
   0.0000000000000000        2.4865710105948752E-002   0.00000000    
  -2.4817791527605753E-002   2.4699606651989767E-002   0.00000000    
  -4.9304011034565519E-002   2.4137871855044561E-002   0.00000000    
  -7.3000234178902376E-002   2.3251199471657113E-002   0.00000000    
  -9.5716265255209418E-002   2.1987429909671369E-002   0.00000000    
 -0.11688934108779545        2.0420780849288583E-002   0.00000000    
 -0.13647767224735879        1.8514364040050246E-002   0.00000000    
 -0.15384467850238995        1.6342515837830644E-002   0.00000000    
 -0.16909718928855855        1.3887253484725415E-002   0.00000000    
 -0.18156258956802782        1.1219922678164625E-002   0.00000000    
 -0.19149031308533368        8.3442108472042576E-003   0.00000000    
 -0.19821501299741001        5.3255208023034089E-003   0.00000000    
 -0.20211680140029326        2.1905596058744720E-003   0.00000000    
 -0.20258359666567077       -1.0041788642574535E-003   0.00000000    
 -0.20010832755900121       -4.2095169991853620E-003   0.00000000    
 -0.19417707648174642       -7.3809680244292762E-003   0.00000000    
 -0.18537153679920282       -1.0449623449352904E-002   0.00000000    
 -0.17331538421816375       -1.3386200612438887E-002   0.00000000    
 -0.15864864354076519       -1.6106962841590047E-002   0.00000000    
 -0.14116222709059922       -1.8600882466180177E-002   0.00000000    
 -0.12151798054915051       -2.0776047349911470E-002   0.00000000    
  -9.9690417006437479E-002  -2.2642123651989775E-002   0.00000000    
  -7.6321843731455938E-002  -2.4106661222598028E-002   0.00000000    
  -5.1571493777184611E-002  -2.5201248463626494E-002   0.00000000    
  -2.6018349213585354E-002  -2.5840536462666788E-002   0.00000000    
   7.7694049437295947E-006  -2.6077476199376490E-002   0.00000000    
   2.6033850027596266E-002  -2.5840472841974983E-002   0.00000000    
   5.1586905504874471E-002  -2.5201121555751778E-002   0.00000000    
   7.6337091140789168E-002  -2.4106471455718655E-002   0.00000000    
   9.9705449868375359E-002  -2.2641872265456407E-002   0.00000000    
  0.12153272600989846       -2.0775735281542515E-002   0.00000000    
  0.14117663687427739       -1.8600511694532945E-002   0.00000000    
  0.15866264869021998       -1.6106534857100393E-002   0.00000000    
  0.17332893940381458       -1.3385717874594116E-002   0.00000000    
  0.18538457804814629       -1.0449087727938499E-002   0.00000000    
  0.19418956203378093       -7.3803825088035891E-003   0.00000000    
  0.20012019957043906       -4.2088838248443569E-003   0.00000000    
  0.20259481789077413       -1.0035015682289586E-003   0.00000000    
  0.20212732104358458        2.1912784664200168E-003   0.00000000    
  0.19822479863686895        5.3262774669357834E-003   0.00000000    
  0.19149932169317171        8.3450027112243093E-003   0.00000000    
  0.18157079398153225        1.1220745831221514E-002   0.00000000    
  0.16910455422443924        1.3888105110180134E-002   0.00000000    
  0.15385118230357964        1.6343391850630773E-002   0.00000000    
  0.13648328773203575        1.8515261840803515E-002   0.00000000    
  0.11689405200900656        2.0421696416262586E-002   0.00000000    
   9.5720052389420121E-002   2.1988360490927100E-002   0.00000000    
   7.3003086782965076E-002   2.3252141193038301E-002   0.00000000    
   4.9305917578853192E-002   2.4138821982945965E-002   0.00000000    
   2.4818746705947296E-002   2.4700561336405420E-002   0.00000000    
   0.0000000000000000        2.4866666724335167E-002   0.00000000    
   0.0000000000000000        4.9940960506472939E-002   0.00000000    
  -2.5098449398737888E-002   4.9541991769900290E-002   0.00000000    
  -4.9796501026950324E-002   4.8481152441680588E-002   0.00000000    
  -7.3831762042307819E-002   4.6640797507970420E-002   0.00000000    
  -9.6684095959929245E-002   4.4167591263511753E-002   0.00000000    
 -0.11823946971342189        4.0970463271426713E-002   0.00000000    
 -0.13788456827500073        3.7199505420971869E-002   0.00000000    
 -0.15565686874050946        3.2798074964468439E-002   0.00000000    
 -0.17088448183991484        2.7913211887330102E-002   0.00000000    
 -0.18375307718068093        2.2529353172932653E-002   0.00000000    
 -0.19357367536602907        1.6784495161243928E-002   0.00000000    
 -0.20067087229544930        1.0708526019315271E-002   0.00000000    
 -0.20438468878594265        4.4245517828860586E-003   0.00000000    
 -0.20516358923264011       -1.9910832700157435E-003   0.00000000    
 -0.20242388432187125       -8.4361947471892976E-003   0.00000000    
 -0.19671685130440528       -1.4791182946311680E-002   0.00000000    
 -0.18757928253137135       -2.0981125747920104E-002   0.00000000    
 -0.17563785431160300       -2.6850888287627609E-002   0.00000000    
 -0.16058627708346696       -3.2359202416133138E-002   0.00000000    
 -0.14309273480531121       -3.7327211314582963E-002   0.00000000    
 -0.12303229321204302       -4.1753016471673947E-002   0.00000000    
 -0.10107489200360850       -4.5448729385967564E-002   0.00000000    
  -7.7286387022862529E-002  -4.8455743949120528E-002   0.00000000    
  -5.2294636201802899E-002  -5.0592876886575336E-002   0.00000000    
  -2.6349612074736316E-002  -5.1945687156584430E-002   0.00000000    
   7.7414970922306585E-006  -5.2354408179818457E-002   0.00000000    
   2.6365069574787282E-002  -5.1945560045869983E-002   0.00000000    
   5.2309992455016614E-002  -5.0592623135538639E-002   0.00000000    
   7.7301591585407503E-002  -4.8455365016326607E-002   0.00000000    
  0.10108987068562370       -4.5448226737359425E-002   0.00000000    
  0.12304699692500200       -4.1752393295044848E-002   0.00000000    
  0.14310709251129661       -3.7326469967050711E-002   0.00000000    
  0.16060024194318040       -3.2358347526908547E-002   0.00000000    
  0.17565135977402480       -2.6849923093285061E-002   0.00000000    
  0.18759228526929947       -2.0980055821643629E-002   0.00000000    
  0.19672929038891060       -1.4790012285046165E-002   0.00000000    
  0.20243572029737306       -8.4349300686980856E-003   0.00000000    
  0.20517476790147723       -1.9897293849379118E-003   0.00000000    
  0.20439517544736352        4.4259876438284161E-003   0.00000000    
  0.20068062007222806        1.0710038572252572E-002   0.00000000    
  0.19358265462145299        1.6786076690177096E-002   0.00000000    
  0.18376124906188596        2.2530998229879400E-002   0.00000000    
  0.17089182216528856        2.7914912642612720E-002   0.00000000    
  0.15566334631244849        3.2799825735835862E-002   0.00000000    
  0.13789016433594367        3.7201298290945872E-002   0.00000000    
  0.11824416135275288        4.0972292754542068E-002   0.00000000    
   9.6687869783418839E-002   4.4169449531759268E-002   0.00000000    
   7.3834602805993813E-002   4.6642679132606467E-002   0.00000000    
   4.9798400832585625E-002   4.8483049684451877E-002   0.00000000    
   2.5099400612462464E-002   4.9543899297603680E-002   0.00000000    
   0.0000000000000000        4.9942870673939918E-002   0.00000000    
   0.0000000000000000        7.5301335183879159E-002   0.00000000    
  -2.5519541627426517E-002   7.4800940923617359E-002   0.00000000    
  -5.0703357483178259E-002   7.3105403511934328E-002   0.00000000    
  -7.5080707444370010E-002   7.0430490127914566E-002   0.00000000    
  -9.8464617322839385E-002   6.6615474962071153E-002   0.00000000    
 -0.12027151985721458        6.1886188331471484E-002   0.00000000    
 -0.14046920846701111        5.6127899696263070E-002   0.00000000    
 -0.15839217559846569        4.9566280375255956E-002   0.00000000    
 -0.17416216740550125        4.2143943067276653E-002   0.00000000    
 -0.18707077125385416        3.4077152771756325E-002   0.00000000    
 -0.19738680228110822        2.5374655885376438E-002   0.00000000    
 -0.20440449123901649        1.6234582183118258E-002   0.00000000    
 -0.20852717689150502        6.7363282375240497E-003   0.00000000    
 -0.20910090550407009       -2.9489003087596411E-003   0.00000000    
 -0.20664527714902439       -1.2672381156375733E-002   0.00000000    
 -0.20060687176832190       -2.2299105238110409E-002   0.00000000    
 -0.19159713651021354       -3.1619178308378876E-002   0.00000000    
 -0.17920656244262917       -4.0543508950183930E-002   0.00000000    
 -0.16410739225680177       -4.8816000567382160E-002   0.00000000    
 -0.14606709797088155       -5.6402921227390733E-002   0.00000000    
 -0.12578101101718966       -6.3022506984956886E-002   0.00000000    
 -0.10321222733251462       -6.8704095722947403E-002   0.00000000    
  -7.9035831363099343E-002  -7.3163950787800580E-002   0.00000000    
  -5.3412382991040085E-002  -7.6498541516102164E-002   0.00000000    
  -2.6950209533170545E-002  -7.8445892526097058E-002   0.00000000    
   7.7028721283993245E-006  -7.9168141218539559E-002   0.00000000    
   2.6965577348630639E-002  -7.8445701992447478E-002   0.00000000    
   5.3427662489991513E-002  -7.6498161624620420E-002   0.00000000    
   7.9050947481918002E-002  -7.3163382924606266E-002   0.00000000    
  0.10322713070425436       -6.8703343377058759E-002   0.00000000    
  0.12579562884897630       -6.3021572996516617E-002   0.00000000    
  0.14608138256889044       -5.6401811450808741E-002   0.00000000    
  0.16412127484726169       -4.8814719253267420E-002   0.00000000    
  0.17921999805833860       -4.0542063808544464E-002   0.00000000    
  0.19161006135969952       -3.1617574838528388E-002   0.00000000    
  0.20061924486613072       -2.2297352715141473E-002   0.00000000    
  0.20665704110440875       -1.2670486087973986E-002   0.00000000    
  0.20911202333805884       -2.9468733853249339E-003   0.00000000    
  0.20853759822748597        6.7384795657484597E-003   0.00000000    
  0.20441418430642744        1.6236846422219151E-002   0.00000000    
  0.19739572445041573        2.5377025147844713E-002   0.00000000    
  0.18707889583011289        3.4079615062691693E-002   0.00000000    
  0.17416945975440384        4.2146490372019584E-002   0.00000000    
  0.15839861464621061        4.9568900652029881E-002   0.00000000    
  0.14047476744878543        5.6130584638076228E-002   0.00000000    
  0.12027618289137665        6.1888926112260427E-002   0.00000000    
   9.8468365689858187E-002   6.6618257415921672E-002   0.00000000    
   7.5083530711129789E-002   7.0433305727308854E-002   0.00000000    
   5.0705244330522779E-002   7.3108244157713664E-002   0.00000000    
   2.5520486927851728E-002   7.4803795187446301E-002   0.00000000    
   0.0000000000000000        7.5304195129674609E-002   0.00000000    
   0.0000000000000000       0.10128825716855194        0.00000000    
  -2.6147420133230452E-002  0.10048225173073475        0.00000000    
  -5.1882464557076596E-002   9.8344224011651771E-002   0.00000000    
  -7.6942591898549156E-002   9.4630417804408881E-002   0.00000000    
 -0.10078292786133655        8.9641063988591771E-002   0.00000000    
 -0.12329967792781496        8.3185522468753506E-002   0.00000000    
 -0.14384196515646874        7.5569811940475934E-002   0.00000000    
 -0.16246627654705109        6.6672916769054000E-002   0.00000000    
 -0.17845147658390481        5.6793768605199184E-002   0.00000000    
 -0.19200952556387080        4.5895249619194528E-002   0.00000000    
 -0.20239311329100568        3.4257447313278379E-002   0.00000000    
 -0.20995925771032400        2.1936893050124830E-002   0.00000000    
 -0.21398468898786896        9.1834031752276672E-003   0.00000000    
 -0.21495567992851106       -3.8499874578343976E-003   0.00000000    
 -0.21222570127610940       -1.6955632827221918E-002   0.00000000    
 -0.20638873234036983       -2.9889960331603998E-002   0.00000000    
 -0.19692525808763853       -4.2500265223322120E-002   0.00000000    
 -0.18450893208693145       -5.4468055191981300E-002   0.00000000    
 -0.16878951420138641       -6.5708775532940217E-002   0.00000000    
 -0.15048518494261304       -7.5853503449871476E-002   0.00000000    
 -0.12944394312601543       -8.4897987217060808E-002   0.00000000    
 -0.10638640066396603       -9.2453675711528585E-002   0.00000000    
  -8.1370608399556468E-002  -9.8605293137140199E-002   0.00000000    
  -5.5072174743356683E-002 -0.10297781554432284        0.00000000    
  -2.7752362884584998E-002 -0.10574733817980046        0.00000000    
   7.6402693435572789E-006 -0.10658334557303284        0.00000000    
   2.7767618502190422E-002 -0.10574708479625572        0.00000000    
   5.5087329914831833E-002 -0.10297730974007428        0.00000000    
   8.1385613764537831E-002  -9.8604538000030148E-002   0.00000000    
  0.10640118218518162       -9.2452674048649167E-002   0.00000000    
  0.12945845281732246       -8.4896745175655305E-002   0.00000000    
  0.15049935202018297       -7.5852025878639456E-002   0.00000000    
  0.16880329276709799       -6.5707071493937383E-002   0.00000000    
  0.18452225590709137       -5.4466131054790833E-002   0.00000000    
  0.19693808449411185       -4.2498132568947439E-002   0.00000000    
  0.20640100076382933       -2.9887627258297387E-002   0.00000000    
  0.21223737309874988       -1.6953112565717819E-002   0.00000000    
  0.21496670157076189       -3.8472894255146676E-003   0.00000000    
  0.21399502657532279        9.1862639475964371E-003   0.00000000    
  0.20996886506680948        2.1939906344849585E-002   0.00000000    
  0.20240196160070212        3.4260597465264366E-002   0.00000000    
  0.19201757664066169        4.5898525846820179E-002   0.00000000    
  0.17845870693213450        5.6797154929438612E-002   0.00000000    
  0.16247265601497757        6.6676402208065796E-002   0.00000000    
  0.14384747565189482        7.5573380758807998E-002   0.00000000    
  0.12330429715113778        8.3189163593027846E-002   0.00000000    
  0.10078664296353500        8.9644761887522323E-002   0.00000000    
   7.6945388177301025E-002   9.4634161882728773E-002   0.00000000    
   5.1884334479634003E-002   9.8347998954420243E-002   0.00000000    
   2.6148356318198739E-002  0.10048604698238917        0.00000000    
   0.0000000000000000       0.10129205761222336        0.00000000    
   0.0000000000000000       0.12783280981271705        0.00000000    
  -2.6906069169268802E-002  0.12699239772430101        0.00000000    
  -5.3469149228731583E-002  0.12413341174572960        0.00000000    
  -7.9194472804761509E-002  0.11962789024294172        0.00000000    
 -0.10390283340249970       0.11319349709801928        0.00000000    
 -0.12696905395793245       0.10521726898877647        0.00000000    
 -0.14838154468683415        9.5494051955996542E-002   0.00000000    
 -0.16741617672928213        8.4408828791350976E-002   0.00000000    
 -0.18422596170760566        7.1854049635733552E-002   0.00000000    
 -0.19802925072272393        5.8197514651515715E-002   0.00000000    
 -0.20913491896945957        4.3445645650693636E-002   0.00000000    
 -0.21675384010525714        2.7934967693600838E-002   0.00000000    
 -0.22133692060111565        1.1795046994203482E-002   0.00000000    
 -0.22214326119279718       -4.6830930287934894E-003   0.00000000    
 -0.21974678709700474       -2.1247774045162187E-002   0.00000000    
 -0.21351155920745990       -3.7668809958350098E-002   0.00000000    
 -0.20410953301154522       -5.3585710792876495E-002   0.00000000    
 -0.19106152277534910       -6.8845740591837817E-002   0.00000000    
 -0.17510541046596567       -8.3005415713197528E-002   0.00000000    
 -0.15595921314782513       -9.6006185222308471E-002   0.00000000    
 -0.13438676578794295      -0.10735779053032705        0.00000000    
 -0.11032687102100114      -0.11711010553151965        0.00000000    
  -8.4521997857133685E-002 -0.12476832502741561        0.00000000    
  -5.7135140898298027E-002 -0.13049887054895973        0.00000000    
  -2.8835224109342038E-002 -0.13384480829850512        0.00000000    
   7.5656345806085675E-006 -0.13508746482723910        0.00000000    
   2.8850317605233985E-002 -0.13384449222060818        0.00000000    
   5.7150147694999417E-002 -0.13049824029370344        0.00000000    
   8.4536843171168205E-002 -0.12476738305211119        0.00000000    
  0.11034150699913652      -0.11710885752709160        0.00000000    
  0.13440111997826082      -0.10735624121266303        0.00000000    
  0.15597323924655507       -9.6004344221893440E-002   0.00000000    
  0.17511904002034440       -8.3003290047048858E-002   0.00000000    
  0.19107471204586032       -6.8843343052221506E-002   0.00000000    
  0.20412221874987546       -5.3583050594904605E-002   0.00000000    
  0.21352370123994938       -3.7665902739600660E-002   0.00000000    
  0.21975832862701969       -2.1244630825618664E-002   0.00000000    
  0.22215416645451527       -4.6797315056108860E-003   0.00000000    
  0.22134714005946787        1.1798614134091010E-002   0.00000000    
  0.21676334301763880        2.7938721397987910E-002   0.00000000    
  0.20914366370552087        4.3449572616371890E-002   0.00000000    
  0.19803721162556390        5.8201595131840610E-002   0.00000000    
  0.18423310529092854        7.1858269755619444E-002   0.00000000    
  0.16742248280017419        8.4413168827733517E-002   0.00000000    
  0.14838698773146422        9.5498498176005669E-002   0.00000000    
  0.12697361899258930       0.10522180199374741        0.00000000    
  0.10390650230497087       0.11319810336986223        0.00000000    
   7.9197235754921380E-002  0.11963255072441416        0.00000000    
   5.3470995522033757E-002  0.12413811329870550        0.00000000    
   2.6906994110685537E-002  0.12699712145553435        0.00000000    
   0.0000000000000000       0.12783754290350663        0.00000000    
   0.0000000000000000       0.15541344324290160        0.00000000    
  -2.7866144035353365E-002  0.15418512513249488        0.00000000    
  -5.5301381958898034E-002  0.15094014996934516        0.00000000    
  -8.2044955441542708E-002  0.14529119651690467        0.00000000    
 -0.10751132799812750       0.13770607146101504        0.00000000    
 -0.13161614283067963       0.12787687708810411        0.00000000    
 -0.15364534298224586       0.11627728187985563        0.00000000    
 -0.17368956609199476       0.10270560057837902        0.00000000    
 -0.19094363187146993        8.7622275252058776E-002   0.00000000    
 -0.20566565124038172        7.0955743338130609E-002   0.00000000    
 -0.21700761561903525        5.3136195606216005E-002   0.00000000    
 -0.22538262180930521        3.4239490253975408E-002   0.00000000    
 -0.22995705193751706        1.4649180348624852E-002   0.00000000    
 -0.23128193274512046       -5.4048605706696453E-003   0.00000000    
 -0.22860022041283076       -2.5603048421524614E-002   0.00000000    
 -0.22257867539527051       -4.5569164852698060E-002   0.00000000    
 -0.21259802195498020       -6.5066891812113892E-002   0.00000000    
 -0.19941199827986184       -8.3597450574581372E-002   0.00000000    
 -0.18259199971335482      -0.10102867362541457        0.00000000    
 -0.16294180045059059      -0.11677818160927646        0.00000000    
 -0.14026079476029624      -0.13083810485730901        0.00000000    
 -0.11535689797803611      -0.14259244095504753        0.00000000    
  -8.8273731236972700E-002 -0.15217288767371823        0.00000000    
  -5.9769710584497072E-002 -0.15898404401735655        0.00000000    
  -3.0125535535962242E-002 -0.16330258515282797        0.00000000    
   7.4645333287212257E-006 -0.16460433638692590        0.00000000    
   3.0140440649481081E-002 -0.16330220734850198        0.00000000    
   5.9784516682968074E-002 -0.15898328977427093        0.00000000    
   8.8288390868258862E-002 -0.15217176173632960        0.00000000    
  0.11537133741883455      -0.14259094738625627        0.00000000    
  0.14027496794435251      -0.13083625305934701        0.00000000    
  0.16295563708421990      -0.11677597844704356        0.00000000    
  0.18260545544767653      -0.10102613267728554        0.00000000    
  0.19942500724817194       -8.3594581266927315E-002   0.00000000    
  0.21261054295039844       -6.5063711876932398E-002   0.00000000    
  0.22259064875932461       -4.5565686033778814E-002   0.00000000    
  0.22861160872717357       -2.5599291249758446E-002   0.00000000    
  0.23129268329570607       -5.4008389674483903E-003   0.00000000    
  0.22996713210157682        1.4653443598600577E-002   0.00000000    
  0.22539198665848531        3.4243979709360675E-002   0.00000000    
  0.21701623754902011        5.3140887916671750E-002   0.00000000    
  0.20567349343914443        7.0960622038382534E-002   0.00000000    
  0.19095067227114201        8.7627316270905864E-002   0.00000000    
  0.17369577600544139       0.10271078771473825        0.00000000    
  0.15365070546634685       0.11628259145579244        0.00000000    
  0.13162063678509611       0.12788229327710279        0.00000000    
  0.10751494165128979       0.13771157098257888        0.00000000    
   8.2047674896115350E-002  0.14529676389986690        0.00000000    
   5.5303200270657785E-002  0.15094576242081767        0.00000000    
   2.7867054326414353E-002  0.15419076733813186        0.00000000    
   0.0000000000000000       0.15541909309208363        0.00000000    
   0.0000000000000000       0.18379638331923362        0.00000000    
  -2.8938780729215491E-002  0.18260819585940857        0.00000000    
  -5.7526365841048532E-002  0.17854098819459049        0.00000000    
  -8.5233550667312100E-002  0.17214220256675825        0.00000000    
 -0.11189617716582143       0.16298515007331990        0.00000000    
 -0.13682676178006983       0.15163428362430525        0.00000000    
 -0.16004837840720562       0.13777177724722420        0.00000000    
 -0.18074715955711798       0.12195519472751488        0.00000000    
 -0.19912672979501170       0.10400740161454318        0.00000000    
 -0.21429153523505728        8.4458526437420189E-002   0.00000000    
 -0.22661391468611702        6.3298840084508659E-002   0.00000000    
 -0.23517335767400988        4.1012378874474807E-002   0.00000000    
 -0.24049499404225258        1.7773441151114767E-002   0.00000000    
 -0.24169927372838124       -5.9988777786223590E-003   0.00000000    
 -0.23944408652490862       -2.9944848671171361E-002   0.00000000    
 -0.23296056690348407       -5.3731346999758053E-002   0.00000000    
 -0.22301390244641911       -7.6830946306633383E-002   0.00000000    
 -0.20901171338815994       -9.9020527413329826E-002   0.00000000    
 -0.19179332200151344      -0.11964290622542174        0.00000000    
 -0.17099578984644750      -0.13861059979520127        0.00000000    
 -0.14748956878648428      -0.15519183351475191        0.00000000    
 -0.12117319311101080      -0.16945790476228365        0.00000000    
  -9.2894900192777949E-002 -0.18066780404668692        0.00000000    
  -6.2820782253100060E-002 -0.18906618670505218        0.00000000    
  -3.1715603123803837E-002 -0.19396871737800520        0.00000000    
   7.3489481219378861E-006 -0.19579307702043341        0.00000000    
   3.1730263601322702E-002 -0.19396827820181811        0.00000000    
   6.2835359005597613E-002 -0.18906531109371369        0.00000000    
   9.2909318845484729E-002 -0.18066649491053577        0.00000000    
  0.12118740807993646      -0.16945617051790066        0.00000000    
  0.14750350808830279      -0.15518968046845083        0.00000000    
  0.17100940921402136      -0.13860804139651062        0.00000000    
  0.19180655352380607      -0.11963995176903999        0.00000000    
  0.20902451533882269       -9.9017195276124181E-002   0.00000000    
  0.22302621224771513       -7.6827249078585055E-002   0.00000000    
  0.23297234589552343       -5.3727307032887903E-002   0.00000000    
  0.23945527898111776       -2.9940481061619700E-002   0.00000000    
  0.24170984543965213       -5.9942081042631181E-003   0.00000000    
  0.24050489689386909        1.7778395576359098E-002   0.00000000    
  0.23518256221298264        4.1017590782369794E-002   0.00000000    
  0.22662238108311408        6.3304291003879673E-002   0.00000000    
  0.21429923956597802        8.4464188326333137E-002   0.00000000    
  0.19913364012984922       0.10401325524018065        0.00000000    
  0.18075325731584391       0.12196121231971691        0.00000000    
  0.16005363967481109       0.13777794028808066        0.00000000    
  0.13683117290103558       0.15164056502501902        0.00000000    
  0.11189972146134912       0.16299153151017137        0.00000000    
   8.5236219270640901E-002  0.17214865792554157        0.00000000    
   5.7528148851053819E-002  0.17854749940669817        0.00000000    
   2.8939673836931624E-002  0.18261473722772292        0.00000000    
   0.0000000000000000       0.18380293740483997        0.00000000    
   0.0000000000000000       0.21360892230297082        0.00000000    
  -3.0202145522488930E-002  0.21193760754573154        0.00000000    
  -5.9950587159477799E-002  0.20754862771088245        0.00000000    
  -8.8991452875094634E-002  0.19988363776845589        0.00000000    
 -0.11668364842772933       0.18959956120229782        0.00000000    
 -0.14297517559319753       0.17624300801394888        0.00000000    
 -0.16706252415840928       0.16047304195186365        0.00000000    
 -0.18908954123778152       0.14198075137969635        0.00000000    
 -0.20812942232846832       0.12140231962810619        0.00000000    
 -0.22451003525883753        9.8610049166139857E-002   0.00000000    
 -0.23723510280757820        7.4195786967389599E-002   0.00000000    
 -0.24680073075594108        4.8241524438717598E-002   0.00000000    
 -0.25220835341295300        2.1274576375369524E-002   0.00000000    
 -0.25410341304990919       -6.3996530876110156E-003   0.00000000    
 -0.25156146864661161       -3.4340184129544545E-002   0.00000000    
 -0.24535454309097832       -6.2025437047627585E-002   0.00000000    