 <VTKFile type="UnstructuredGrid" version="0.1" byte_order="BigEndian">
 <UnstructuredGrid>
 <Piece NumberOfPoints="        2601 " NumberOfCells="        2500 ">
 <PointData Scalars="scalars">
 <DataArray type="Float32" NumberOfComponents="3" Name="Velocity" Format="ascii">
   0.0000000000000000        0.0000000000000000        0.00000000    
 -0.10640319731361304        0.0000000000000000        0.00000000    
 -0.21203614525536854        0.0000000000000000        0.00000000    
 -0.31611633675374529        0.0000000000000000        0.00000000    
 -0.41781166303370287        0.0000000000000000        0.00000000    
 -0.51625188775644959        0.0000000000000000        0.00000000    
 -0.61047000541620888        0.0000000000000000        0.00000000    
 -0.69942381977860668        0.0000000000000000        0.00000000    
 -0.78195300074057139        0.0000000000000000        0.00000000    
 -0.85674260738629160        0.0000000000000000        0.00000000    
 -0.92243346652068958        0.0000000000000000        0.00000000    
 -0.97732679465329686        0.0000000000000000        0.00000000    
  -1.0199869398805743        0.0000000000000000        0.00000000    
  -1.0482570832334956        0.0000000000000000        0.00000000    
  -1.0609752793388680        0.0000000000000000        0.00000000    
  -1.0555975082330080        0.0000000000000000        0.00000000    
  -1.0318545985759919        0.0000000000000000        0.00000000    
 -0.98715487764161136        0.0000000000000000        0.00000000    
 -0.92283719265898445        0.0000000000000000        0.00000000    
 -0.83687893272384895        0.0000000000000000        0.00000000    
 -0.73260156379314190        0.0000000000000000        0.00000000    
 -0.60925712049018721        0.0000000000000000        0.00000000    
 -0.47176562546895529        0.0000000000000000        0.00000000    
 -0.32117943063588761        0.0000000000000000        0.00000000    
 -0.16292001427061142        0.0000000000000000        0.00000000    
  -2.3309604685134578E-006   0.0000000000000000        0.00000000    
  0.16291541311247631        0.0000000000000000        0.00000000    
  0.32117486707002824        0.0000000000000000        0.00000000    
  0.47176121022291101        0.0000000000000000        0.00000000    
  0.60925282020219163        0.0000000000000000        0.00000000    
  0.73259746276050719        0.0000000000000000        0.00000000    
  0.83687498765376700        0.0000000000000000        0.00000000    
  0.92283345664048466        0.0000000000000000        0.00000000    
  0.98715130558596342        0.0000000000000000        0.00000000    
   1.0318512219671396        0.0000000000000000        0.00000000    
   1.0555942922449870        0.0000000000000000        0.00000000    
   1.0609722447006773        0.0000000000000000        0.00000000    
   1.0482542092811729        0.0000000000000000        0.00000000    
   1.0199842438801519        0.0000000000000000        0.00000000    
  0.97732427078244921        0.0000000000000000        0.00000000    
  0.92243113037092173        0.0000000000000000        0.00000000    
  0.85674046258698910        0.0000000000000000        0.00000000    
  0.78195106093570010        0.0000000000000000        0.00000000    
  0.69942209398739152        0.0000000000000000        0.00000000    
  0.61046850524344742        0.0000000000000000        0.00000000    
  0.51625062155573043        0.0000000000000000        0.00000000    
  0.41781063946341240        0.0000000000000000        0.00000000    
  0.31611556299580001        0.0000000000000000        0.00000000    
  0.21203562620585251        0.0000000000000000        0.00000000    
  0.10640293680963216        0.0000000000000000        0.00000000    
   0.0000000000000000        0.0000000000000000        0.00000000    
   0.0000000000000000       0.10643953550765083        0.00000000    
 -0.10609468099421225       0.10605982330701524        0.00000000    
 -0.21142856347527250       0.10490848734634002        0.00000000    
 -0.31521655748379052       0.10296117783834972        0.00000000    
 -0.41664949810897678       0.10016856791134765        0.00000000    
 -0.51484424170838505        9.6467878141540772E-002   0.00000000    
 -0.60886699763363994        9.1774471772853028E-002   0.00000000    
 -0.69766671106434730        8.5980530660610427E-002   0.00000000    
 -0.78009586952531973        7.8979281421524633E-002   0.00000000    
 -0.85489248071198942        7.0608406792377468E-002   0.00000000    
 -0.92058784336681010        6.0779282818247224E-002   0.00000000    
 -0.97574708927767961        4.9274756180830992E-002   0.00000000    
  -1.0184725097855793        3.6112271406906156E-002   0.00000000    
  -1.0473701185595055        2.1056939157441286E-002   0.00000000    
  -1.0600786007805663        4.3711940634390762E-003   0.00000000    
  -1.0557342744224809       -1.4091840483304112E-002   0.00000000    
  -1.0316855182893556       -3.3698378044769550E-002   0.00000000    
 -0.98833628250692873       -5.4349135466523056E-002   0.00000000    
 -0.92322898533236597       -7.5074407197750631E-002   0.00000000    
 -0.83869739760162598       -9.5414004875726904E-002   0.00000000    
 -0.73319019677208008      -0.11436913255324750        0.00000000    
 -0.61102173139189397      -0.13114234708253358        0.00000000    
 -0.47221796862579518      -0.14515148408512113        0.00000000    
 -0.32224172903759823      -0.15540952591953180        0.00000000    
 -0.16308053487262875      -0.16200966148859527        0.00000000    
  -2.3456348630395145E-006 -0.16398478871403921        0.00000000    
  0.16307583335627965      -0.16200971200477174        0.00000000    
  0.32223713838105000      -0.15540962385540166        0.00000000    
  0.47221346220166455      -0.14515161870144916        0.00000000    
  0.61101740962722484      -0.13114251208365579        0.00000000    
  0.73318602010826461      -0.11436931190827072        0.00000000    
  0.83869343438407173       -9.5414194929423921E-002   0.00000000    
  0.92322518925870234       -7.5074593339423554E-002   0.00000000    
  0.98833269388082334       -5.4349320735134481E-002   0.00000000    
   1.0316820949352523       -3.3698553494821294E-002   0.00000000    
   1.0557310404121572       -1.4092014997709387E-002   0.00000000    
   1.0600755282876200        4.3710257107999837E-003   0.00000000    
   1.0473672255169912        2.1056767373958736E-002   0.00000000    
   1.0184697839883252        3.6112097993414263E-002   0.00000000    
  0.97574454632390295        4.9274574621467518E-002   0.00000000    
  0.92058548384567696        6.0779093224090350E-002   0.00000000    
  0.85489031922784486        7.0608206999291642E-002   0.00000000    
  0.78009391292422248        7.8979071337346912E-002   0.00000000    
  0.69766497187061360        8.5980309323988507E-002   0.00000000    
  0.60886548496744408        9.1774240963707079E-002   0.00000000    
  0.51484296580690136        9.6467638214158408E-002   0.00000000    
  0.41664846706157210       0.10016832035445081        0.00000000    
  0.31521577779814197       0.10296092422137694        0.00000000    
  0.21142804072781129       0.10490822931692749        0.00000000    
  0.10609441870157708       0.10605956233629879        0.00000000    
   0.0000000000000000       0.10643927368198380        0.00000000    
   0.0000000000000000       0.21226018058674276        0.00000000    
 -0.10516871071529157       0.21150398884590588        0.00000000    
 -0.20959243602566141       0.20922334823313601        0.00000000    
 -0.31251451936836128       0.20535781238456771        0.00000000    
 -0.41313156988809779       0.19982334176463470        0.00000000    
 -0.51060771326773968       0.19248540740794687        0.00000000    
 -0.60400716932613530       0.18318056923726925        0.00000000    
 -0.69234174221240607       0.17171013257170686        0.00000000    
 -0.77447526911754372       0.15781377595497642        0.00000000    
 -0.84917672255589693       0.14127338569308770        0.00000000    
 -0.91507932369850942       0.12171367393472766        0.00000000    
 -0.97059404836227348        9.9015739031108940E-002   0.00000000    
  -1.0142035659576389        7.2707626841327949E-002   0.00000000    
  -1.0438454701833162        4.3002493600388866E-002   0.00000000    
  -1.0581682844054920        9.4583291380380980E-003   0.00000000    
  -1.0546249679703359       -2.7065228879947667E-002   0.00000000    
  -1.0326989720214477       -6.6698356531892738E-002   0.00000000    
 -0.98963200694496778      -0.10776397625807337        0.00000000    
 -0.92664524789930558      -0.14975224550484637        0.00000000    
 -0.84141131943478753      -0.19050030891761610        0.00000000    
 -0.73746450104685113      -0.22873547805227060        0.00000000    
 -0.61371155291851376      -0.26269604800019997        0.00000000    
 -0.47557384848941581      -0.29053788654798118        0.00000000    
 -0.32381262303365110      -0.31175922632498482        0.00000000    
 -0.16432581670051555      -0.32430660121851512        0.00000000    
  -2.4632612093590454E-006 -0.32908803185749602        0.00000000    
  0.16432095641247962      -0.32430670772242665        0.00000000    
  0.32380781036951228      -0.31175942675680945        0.00000000    
  0.47556920239494310      -0.29053816947038202        0.00000000    
  0.61370704125635800      -0.26269638378698790        0.00000000    
  0.73746021082498114      -0.22873585316267944        0.00000000    
  0.84140720362510879      -0.19050069107430292        0.00000000    
  0.92664135826096683      -0.14975263285864268        0.00000000    
  0.98962829551995257      -0.10776434597532873        0.00000000    
   1.0326954671106578       -6.6698719319381705E-002   0.00000000    
   1.0546216323118172       -2.7065574652820439E-002   0.00000000    
   1.0581651358461859        9.4579834274477279E-003   0.00000000    
   1.0438424905849579        4.3002150763651395E-002   0.00000000    
   1.0142007708671692        7.2707272728133890E-002   0.00000000    
  0.97059143405682990        9.9015374543138884E-002   0.00000000    
  0.91507690417798937       0.12171328905181701        0.00000000    
  0.84917450386725213       0.14127298232010271        0.00000000    
  0.77447326486995594       0.15781335012681047        0.00000000    
  0.69233996081476812       0.17170968672197992        0.00000000    
  0.60400562165225036       0.18318010269016230        0.00000000    
  0.51060640864874018       0.19248492339915466        0.00000000    
  0.41313051597590789       0.19982284272848833        0.00000000    
  0.31251372302766428       0.20535730131382732        0.00000000    
  0.20959190227992100       0.20922282812457907        0.00000000    
  0.10516844310499959       0.21150346336429204        0.00000000    
   0.0000000000000000       0.21225965336927891        0.00000000    
   0.0000000000000000       0.31683140456047182        0.00000000    
 -0.10361329286824766       0.31571612604079979        0.00000000    
 -0.20651310458710376       0.31233610537891854        0.00000000    
 -0.30796643530685114       0.30662182606853916        0.00000000    
 -0.40721835236778714       0.29842965160197621        0.00000000    
 -0.50344622491642399       0.28758446834137741        0.00000000    
 -0.59579655798015563       0.27383265087396480        0.00000000    
 -0.68327887782078800       0.25687629543701507        0.00000000    
 -0.76487646183202318       0.23638007380360476        0.00000000    
 -0.83935723939079876       0.21189066635836917        0.00000000    
 -0.90545002154971554       0.18309312152936319        0.00000000    
 -0.96165154520671803       0.14935388178237713        0.00000000    
  -1.0062980056449109       0.11062680105976407        0.00000000    
  -1.0377319501692095        6.6160503439428586E-002   0.00000000    
  -1.0537361551731828        1.6628670353057682E-002   0.00000000    
  -1.0529616507342725       -3.8552063460872900E-002   0.00000000    
  -1.0326219739276605       -9.7475870806107492E-002   0.00000000    
 -0.99265068750138874      -0.16002339445137875        0.00000000    
 -0.93010145697046387      -0.22302750122254128        0.00000000    
 -0.84735174325334017      -0.28520738472838814        0.00000000    
 -0.74215447617786112      -0.34317117980960371        0.00000000    
 -0.61964744780915781      -0.39451901932656330        0.00000000    
 -0.47916471037459774      -0.43733405556419980        0.00000000    
 -0.32732571824317452      -0.46856197651458953        0.00000000    
 -0.16561066538720778      -0.48870441277828963        0.00000000    
  -2.6121340346566449E-006 -0.49462033068251909        0.00000000    
  0.16560543625197571      -0.48870458064944217        0.00000000    
  0.32732062674171009      -0.46856230083678557        0.00000000    
  0.47915973657990807      -0.43733449887265757        0.00000000    
  0.61964270309119840      -0.39451955823626189        0.00000000    
  0.74214991809751907      -0.34317175987495474        0.00000000    
  0.84734744015121755      -0.28520799132043329        0.00000000    
  0.93009735397996018      -0.22302809042384919        0.00000000    
  0.99264681842711799      -0.16002397445053715        0.00000000    
   1.0326182917801561       -9.7476416752557443E-002   0.00000000    
   1.0529581736477109       -3.8552600387832411E-002   0.00000000    
   1.0537328561580963        1.6628150626027301E-002   0.00000000    
   1.0377288423504201        6.6159974462072807E-002   0.00000000    
   1.0062950814540246       0.11062626495158329        0.00000000    
  0.96164881896499999       0.14935332055540249        0.00000000    
  0.90544749758210663       0.18309253632662947        0.00000000    
  0.83935493012676865       0.21189004776996834        0.00000000    
  0.76487437647880108       0.23637942483920693        0.00000000    
  0.68327702827735692       0.25687561406400250        0.00000000    
  0.59579495369081226       0.27383194087252816        0.00000000    
  0.50344487375517399       0.28758373160416406        0.00000000    
  0.40721726259192870       0.29842889320228011        0.00000000    
  0.30796561254544946       0.30662104977563143        0.00000000    
  0.20651255372596294       0.31233531599754422        0.00000000    
  0.10361301659939111       0.31571532910450401        0.00000000    
   0.0000000000000000       0.31683060491877524        0.00000000    
   0.0000000000000000       0.41952194066610665        0.00000000    
 -0.10141672729833273       0.41805690663430778        0.00000000    
 -0.20215715504321383       0.41363686051418569        0.00000000    
 -0.30153100016070095       0.40614954249347207        0.00000000    
 -0.39881707128380284       0.39544121827643186        0.00000000    
 -0.49326552833731269       0.38125052508622531        0.00000000    
 -0.58403491017368891       0.36328760148209399        0.00000000    
 -0.67027643106212509       0.34114647633361406        0.00000000    
 -0.75093687824907640       0.31436921292711628        0.00000000    
 -0.82501871855092712       0.28246543164240473        0.00000000    
 -0.89116026800878101       0.24475397180910252        0.00000000    
 -0.94811823033885834       0.20085379857508412        0.00000000    
 -0.99416863295954383       0.14982502507828652        0.00000000    
  -1.0276213924935098        9.1850257868499069E-002   0.00000000    
  -1.0465458240965735        2.5868822752927980E-002   0.00000000    
  -1.0485227475088608       -4.6588530314016142E-002   0.00000000    
  -1.0321520196827423      -0.12614854704751247        0.00000000    
 -0.99424867474201029      -0.20922409160031552        0.00000000    
 -0.93549522861892453      -0.29512822844469883        0.00000000    
 -0.85260723939790162      -0.37874311118519455        0.00000000    
 -0.74981720147857189      -0.45762151481597385        0.00000000    
 -0.62489231478505980      -0.52749935799846115        0.00000000    
 -0.48511791928641612      -0.58460961319499860        0.00000000    
 -0.33020176637524423      -0.62804032849351277        0.00000000    
 -0.16774496781743642      -0.65339667949559488        0.00000000    
  -2.8738493977433030E-006 -0.66327697883974690        0.00000000    
  0.16773930446141783      -0.65339692684231354        0.00000000    
  0.33019618513812937      -0.62804079309283056        0.00000000    
  0.48511256610471282      -0.58461026198844412        0.00000000    
  0.62488715989645249      -0.52750011879298109        0.00000000    
  0.74981233930460289      -0.45762235234865328        0.00000000    
  0.85260261149003758      -0.37874394955417562        0.00000000    
  0.93549087869350511      -0.29512906396300048        0.00000000    
  0.99424454211931612      -0.20922487650133167        0.00000000    
   1.0321481215933399      -0.12614930955200085        0.00000000    
   1.0485190452780899       -4.6589251602366634E-002   0.00000000    
   1.0465423280157151        2.5868103166085326E-002   0.00000000    
   1.0276180902051808        9.1849543762306363E-002   0.00000000    
  0.99416553646603478       0.14982428467642087        0.00000000    
  0.94811534312287538       0.20085303441530028        0.00000000    
  0.89115760154266654       0.24475316651541429        0.00000000    
  0.82501628274732530       0.28246458777908240        0.00000000    
  0.75093468400416929       0.31436832376835977        0.00000000    
  0.67027448861769579       0.34114554754491566        0.00000000    
  0.58403322802416990       0.36328663334757327        0.00000000    
  0.49326411518598856       0.38124952435603771        0.00000000    
  0.39881593234733220       0.39544018826969718        0.00000000    
  0.30153014192436883       0.40614849009324150        0.00000000    
  0.20215658055873978       0.41363579158824870        0.00000000    
  0.10141643954126688       0.41805582792311652        0.00000000    
   0.0000000000000000       0.41952085877361778        0.00000000    
   0.0000000000000000       0.51967486854997114        0.00000000    
  -9.8565052596350511E-002  0.51788699439430419        0.00000000    
 -0.19649424266943424       0.51247762605669100        0.00000000    
 -0.29314813332835249       0.50333774768595518        0.00000000    
 -0.38785340168402505       0.49024558671795654        0.00000000    
 -0.47990415868719677       0.47294660379440095        0.00000000    
 -0.56856715919462619       0.45102513684248030        0.00000000    
 -0.65298096049001841       0.42406549325792042        0.00000000    
 -0.73234119665675668       0.39147210748882055        0.00000000    
 -0.80550972157196288       0.35261412819270560        0.00000000    
 -0.87158536219563609       0.30682368863973986        0.00000000    
 -0.92900178668682831       0.25315968891686652        0.00000000    
 -0.97664603415820084       0.19121500197608271        0.00000000    
  -1.0124009645036545       0.11966918417573957        0.00000000    
  -1.0345942214583979        3.9168794649230794E-002   0.00000000    
  -1.0407802810747822       -5.1724314435309726E-002   0.00000000    
  -1.0281865396511711      -0.14997603125655551        0.00000000    
 -0.99537743362451792      -0.25610786349565989        0.00000000    
 -0.93847395289453284      -0.36390019198111695        0.00000000    
 -0.85967960989564718      -0.47165229528842051        0.00000000    
 -0.75518964082231077      -0.57199115565088909        0.00000000    
 -0.63231090544584390      -0.66093216375378283        0.00000000    
 -0.48872532301845351      -0.73453561130082978        0.00000000    
 -0.33423136625718286      -0.78752327081254758        0.00000000    
 -0.16878646743403708      -0.82181426585170281        0.00000000    
  -3.1721950076607798E-006 -0.83138361475714195        0.00000000    
  0.16878013226978830      -0.82181460676701168        0.00000000    
  0.33422523164328294      -0.78752392451245312        0.00000000    
  0.48871938437354973      -0.73453649501810991        0.00000000    
  0.63230529853491568      -0.66093321965144158        0.00000000    
  0.75518431271035935      -0.57199226959401706        0.00000000    
  0.85967462475408507      -0.47165343448331770        0.00000000    
  0.93846923486652745      -0.36390127176942644        0.00000000    
  0.99537299946379765      -0.25610890529652081        0.00000000    
   1.0281823327719934      -0.14997699867590630        0.00000000    
   1.0407763062765214       -5.1725258748163229E-002   0.00000000    
   1.0345904581123824        3.9167880484899401E-002   0.00000000    
   1.0123974202517279       0.11966825176061868        0.00000000    
  0.97664271196485342       0.19121405202994124        0.00000000    
  0.92899869594504569       0.25315869357248133        0.00000000    
  0.87158251523904240       0.30682264999580866        0.00000000    
  0.80550712722693363       0.35261303440577313        0.00000000    
  0.73233886645065838       0.39147096255627284        0.00000000    
  0.65297890240279255       0.42406429632389103        0.00000000    
  0.56856538266888179       0.45102389499712964        0.00000000    
  0.47990266797342174       0.47294532196511069        0.00000000    
  0.38785220366193651       0.49024427090401823        0.00000000    
  0.29314723081894956       0.50333640488033971        0.00000000    
  0.19649363990185464       0.51247626404269253        0.00000000    
   9.8564750588833558E-002  0.51788562128393900        0.00000000    
   0.0000000000000000       0.51967349129230966        0.00000000    
   0.0000000000000000       0.61663190983777705        0.00000000    
  -9.5043485120649043E-002  0.61453966605111521        0.00000000    
 -0.18950412518434628       0.60821595950815499        0.00000000    
 -0.28276893314382684       0.59751928730789217        0.00000000    
 -0.37424128379167143       0.58224283978198532        0.00000000    
 -0.46326129010078060       0.56202128666846207        0.00000000    
 -0.54914425899886876       0.53649759469534430        0.00000000    
 -0.63119446874001184       0.50505821612198942        0.00000000    
 -0.70852348817146049       0.46716980803019631        0.00000000    
 -0.78043361699504443       0.42199624691642290        0.00000000    
 -0.84565452838613497       0.36873928493439551        0.00000000    
 -0.90350348476430142       0.30651063353062430        0.00000000    
 -0.95206573294843466       0.23407170971946747        0.00000000    
 -0.99052371220384183       0.15102653910954628        0.00000000    
  -1.0160411112737433        5.5523244366646428E-002   0.00000000    
  -1.0269943313039396       -5.0938339962206008E-002   0.00000000    
  -1.0200210937835352      -0.17032784607499132        0.00000000    
 -0.99165163262457090      -0.29693348127921909        0.00000000    
 -0.94074192370299281      -0.43088663681691114        0.00000000    
 -0.86227452347516298      -0.56192646981357286        0.00000000    
 -0.76174356398315590      -0.68673679421678124        0.00000000    
 -0.63464927526475157      -0.79615843557356147        0.00000000    
 -0.49304504346671363      -0.88449804742394855        0.00000000    
 -0.33422838866612670      -0.95087034051778196        0.00000000    
 -0.16986934802092876      -0.98827003425509174        0.00000000    
  -3.6033062538638118E-006  -1.0035757849972651        0.00000000    
  0.16986226139116764      -0.98827050437884068        0.00000000    
  0.33422145601557829      -0.95087121953885700        0.00000000    
  0.49303846417158631      -0.88449925514438055        0.00000000    
  0.63464302098924330      -0.79615982422167608        0.00000000    
  0.76173773938216116      -0.68673828388282054        0.00000000    
  0.86226904071876431      -0.56192791810050224        0.00000000    
  0.94073680549559724      -0.43088803917559521        0.00000000    
  0.99164679467025252      -0.29693476462996560        0.00000000    
   1.0200165304858853      -0.17032907388248561        0.00000000    
   1.0269900068938396       -5.0939494855228230E-002   0.00000000    
   1.0160370257906757        5.5522090403407859E-002   0.00000000    
  0.99051986843325845       0.15102538568694920        0.00000000    
  0.95206213668764472       0.23407051121264663        0.00000000    
  0.90350015203661149       0.30650939176246594        0.00000000    
  0.84565146471751196       0.36873797987020623        0.00000000    
  0.78043083747422692       0.42199488279060471        0.00000000    
  0.70852099805213475       0.46716837989634274        0.00000000    
  0.63119227801040723       0.50505673088090441        0.00000000    
  0.54914237041513325       0.53649605744993312        0.00000000    
  0.46325971154530854       0.56201970439923443        0.00000000    
  0.37424001652478528       0.58224122042794746        0.00000000    
  0.28276798113451596       0.59751763727235319        0.00000000    
  0.18950348917650145       0.60821428898102703        0.00000000    
   9.5043167105697907E-002  0.61453798270116056        0.00000000    
   0.0000000000000000       0.61663022279747448        0.00000000    
   0.0000000000000000       0.70972735669583153        0.00000000    
  -9.0857746448078827E-002  0.70734656572305876        0.00000000    
 -0.18116028595522218       0.70017335412253756        0.00000000    
 -0.27038564905761953       0.68805317797233367        0.00000000    
 -0.35792456703774861       0.67072133121027055        0.00000000    
 -0.44323483969335820       0.64787418666614294        0.00000000    
 -0.52566772854284494       0.61896166360373217        0.00000000    
 -0.60456607715624922       0.58354381519864684        0.00000000    
 -0.67930159601975126       0.54074985495451278        0.00000000    
 -0.74894082008478347       0.48996665848344334        0.00000000    
 -0.81298509888336679       0.43003516652450746        0.00000000    
 -0.86994505969055202       0.36002476929148203        0.00000000    
 -0.91955626147944625       0.27873212067346487        0.00000000    
 -0.95929699959210535       0.18456593848777766        0.00000000    
 -0.98894648260004614        7.7151815836496856E-002   0.00000000    
  -1.0043260207800262       -4.6233069751686354E-002   0.00000000    
  -1.0038471338006572      -0.18248416194490263        0.00000000    
 -0.98260473230861456      -0.33438795674510802        0.00000000    
 -0.93572341630046729      -0.49122211912734248        0.00000000    
 -0.86370276225733000      -0.65207798440373965        0.00000000    
 -0.75986588919413578      -0.80095205734798047        0.00000000    
 -0.63655720888603307      -0.93234509700205204        0.00000000    
 -0.48829552721842490       -1.0381762555775411        0.00000000    
 -0.33301241359613615       -1.1112908648510789        0.00000000    
 -0.16673120467289668       -1.1584887232104728        0.00000000    
  -4.0810236228021282E-006  -1.1699489310840778        0.00000000    
  0.16672308241445025       -1.1584893531058462        0.00000000    
  0.33300460830327305       -1.1112920550452301        0.00000000    
  0.48828806459340501       -1.0381778481482160        0.00000000    
  0.63655027059658187      -0.93234695015499836        0.00000000    
  0.75985939299004979      -0.80095395426907057        0.00000000    
  0.86369675699532811      -0.65207985822215131        0.00000000    
  0.93571777791538235      -0.49122382738039722        0.00000000    
  0.98259944126806553      -0.33438956179891549        0.00000000    
   1.0038421253119951      -0.18248562525775511        0.00000000    
   1.0043212800876182       -4.6234495822947710E-002   0.00000000    
  0.98894201183243635        7.7150424199852075E-002   0.00000000    
  0.95929279828126646       0.18456451156955295        0.00000000    
  0.91955235241740363       0.27873065590389551        0.00000000    
  0.86994144415396712       0.36002323672774444        0.00000000    
  0.81298179664015147       0.43003356990368874        0.00000000    
  0.74893783138493941       0.48996498822331253        0.00000000    
  0.67929893291335564       0.54074811796026645        0.00000000    
  0.60456373890495085       0.58354201457337207        0.00000000    
  0.52566572275053847       0.61895980713788723        0.00000000    
  0.44323316480683567       0.64787228268353902        0.00000000    
  0.35792322736099003       0.67071938707149792        0.00000000    
  0.27038464362196030       0.68805120322309421        0.00000000    
  0.18115961589396343       0.70017135693348242        0.00000000    
   9.0857411027215340E-002  0.70734455640198113        0.00000000    
   0.0000000000000000       0.70972534219107641        0.00000000    
   0.0000000000000000       0.79827731872301155        0.00000000    
  -8.5997493389969787E-002  0.79565289847749054        0.00000000    
 -0.17150788020967134       0.78768100239735572        0.00000000    
 -0.25597064777597489       0.77423471460197402        0.00000000    
 -0.33894093090842425       0.75505004920464314        0.00000000    
 -0.41978950125793385       0.72970536421933274        0.00000000    
 -0.49804496752124361       0.69781989249303678        0.00000000    
 -0.57306360542105772       0.65860362260788408        0.00000000    
 -0.64422081290690303       0.61158382195825123        0.00000000    
 -0.71099058331106191       0.55554273178096270        0.00000000    
 -0.77235977917452248       0.48987361142541835        0.00000000    
 -0.82816174275363563       0.41294928924928015        0.00000000    
 -0.87654097041969692       0.32379906759145960        0.00000000    
 -0.91799603379458949       0.22069582643685046        0.00000000    
 -0.94893939953524553       0.10161580574361918        0.00000000    
 -0.97037831676574360       -3.3877580167157646E-002   0.00000000    