 <VTKFile type="UnstructuredGrid" version="0.1" byte_order="BigEndian">
 <UnstructuredGrid>
 <Piece NumberOfPoints="        2601 " NumberOfCells="        2500 ">
 <PointData Scalars="scalars">
 <DataArray type="Float32" NumberOfComponents="3" Name="Velocity" Format="ascii">
   0.0000000000000000        0.0000000000000000        0.00000000    
  -1.1141684864429527E-002   0.0000000000000000        0.00000000    
  -2.2090297877992240E-002   0.0000000000000000        0.00000000    
  -3.2751291568874637E-002   0.0000000000000000        0.00000000    
  -4.2843592953935417E-002   0.0000000000000000        0.00000000    
  -5.2375557392647334E-002   0.0000000000000000        0.00000000    
  -6.0994499824230212E-002   0.0000000000000000        0.00000000    
  -6.8810001584197478E-002   0.0000000000000000        0.00000000    
  -7.5419304640365933E-002   0.0000000000000000        0.00000000    
  -8.1025858251231486E-002   0.0000000000000000        0.00000000    
  -8.5202335643911983E-002   0.0000000000000000        0.00000000    
  -8.8233591827706834E-002   0.0000000000000000        0.00000000    
  -8.9695571565222038E-002   0.0000000000000000        0.00000000    
  -8.9937685741157694E-002   0.0000000000000000        0.00000000    
  -8.8567350799500649E-002   0.0000000000000000        0.00000000    
  -8.5978116821949030E-002   0.0000000000000000        0.00000000    
  -8.1835277838982631E-002   0.0000000000000000        0.00000000    
  -7.6553459703144255E-002   0.0000000000000000        0.00000000    
  -6.9878343775909429E-002   0.0000000000000000        0.00000000    
  -6.2220964619936522E-002   0.0000000000000000        0.00000000    
  -5.3424200570105530E-002   0.0000000000000000        0.00000000    
  -4.3870421773706751E-002   0.0000000000000000        0.00000000    
  -3.3509533009738149E-002   0.0000000000000000        0.00000000    
  -2.2671129549613898E-002   0.0000000000000000        0.00000000    
  -1.1414379244939406E-002   0.0000000000000000        0.00000000    
   5.5291975435160705E-006   0.0000000000000000        0.00000000    
   1.1425424662635124E-002   0.0000000000000000        0.00000000    
   2.2682098925352751E-002   0.0000000000000000        0.00000000    
   3.3520400603880264E-002   0.0000000000000000        0.00000000    
   4.3881125687255412E-002   0.0000000000000000        0.00000000    
   5.3434715778957947E-002   0.0000000000000000        0.00000000    
   6.2231231612769895E-002   0.0000000000000000        0.00000000    
   6.9888338606955230E-002   0.0000000000000000        0.00000000    
   7.6563126207595963E-002   0.0000000000000000        0.00000000    
   8.1844593615133285E-002   0.0000000000000000        0.00000000    
   8.5987030038629536E-002   0.0000000000000000        0.00000000    
   8.8575840994288849E-002   0.0000000000000000        0.00000000    
   8.9945706148753066E-002   0.0000000000000000        0.00000000    
   8.9703103924593519E-002   0.0000000000000000        0.00000000    
   8.8240595306307595E-002   0.0000000000000000        0.00000000    
   8.5208794343631628E-002   0.0000000000000000        0.00000000    
   8.1031737537976073E-002   0.0000000000000000        0.00000000    
   7.5424591354739640E-002   0.0000000000000000        0.00000000    
   6.8814667752219311E-002   0.0000000000000000        0.00000000    
   6.0998535094325776E-002   0.0000000000000000        0.00000000    
   5.2378940633685020E-002   0.0000000000000000        0.00000000    
   4.2846316727811647E-002   0.0000000000000000        0.00000000    
   3.2753341719579727E-002   0.0000000000000000        0.00000000    
   2.2091669876396339E-002   0.0000000000000000        0.00000000    
   1.1142371617457120E-002   0.0000000000000000        0.00000000    
   0.0000000000000000        0.0000000000000000        0.00000000    
   0.0000000000000000        1.1196024861369090E-002   0.00000000    
  -1.1176205872275120E-002   1.1123325489371906E-002   0.00000000    
  -2.2207289797700803E-002   1.0857831044707431E-002   0.00000000    
  -3.2853334359732207E-002   1.0450666780663320E-002   0.00000000    
  -4.3071459365403110E-002   9.8612191268095169E-003   0.00000000    
  -5.2540505510398808E-002   9.1412509296499751E-003   0.00000000    
  -6.1321097639811736E-002   8.2597430149197598E-003   0.00000000    
  -6.9030010852782930E-002   7.2661312787589312E-003   0.00000000    
  -7.5826708292355632E-002   6.1413284204176613E-003   0.00000000    
  -8.1289749973258316E-002   4.9297259967534977E-003   0.00000000    
  -8.5667335107666748E-002   3.6257955174000107E-003   0.00000000    
  -8.8526912639998276E-002   2.2664970971836124E-003   0.00000000    
  -9.0190541509355238E-002   8.6057025724785568E-004   0.00000000    
  -9.0243083029307447E-002  -5.6445590760186969E-004   0.00000000    
  -8.9061581794398451E-002  -1.9859217692873030E-003   0.00000000    
  -8.6276141229217257E-002  -3.3872943669165053E-003   0.00000000    
  -8.2296791284468832E-002  -4.7334363018177198E-003   0.00000000    
  -7.6823827353874247E-002  -6.0198875921693472E-003   0.00000000    
  -7.0276115687094590E-002  -7.2014819609778589E-003   0.00000000    
  -6.2444202283132084E-002  -8.2863526323377085E-003   0.00000000    
  -5.3730607960073180E-002  -9.2225478810171249E-003   0.00000000    
  -4.4029708636465145E-002  -1.0030672436441221E-002   0.00000000    
  -3.3702749138711366E-002  -1.0655718098311593E-002   0.00000000    
  -2.2754064536141209E-002  -1.1129912273255433E-002   0.00000000    
  -1.1480398312360696E-002  -1.1399046603156326E-002   0.00000000    
   5.5319543904490525E-006  -1.1505334466260260E-002   0.00000000    
   1.1491430588098466E-002  -1.1399001992718113E-002   0.00000000    
   2.2765039331204190E-002  -1.1129823361044832E-002   0.00000000    
   3.3713603790275229E-002  -1.0655585085401759E-002   0.00000000    
   4.4040417743702653E-002  -1.0030496224393679E-002   0.00000000    
   5.3741110615315890E-002  -9.2223289363285756E-003   0.00000000    
   6.2454474017050607E-002  -8.2860924396253970E-003   0.00000000    
   7.0286098562948388E-002  -7.2011811337731992E-003   0.00000000    
   7.6833498194324584E-002  -6.0195480572997444E-003   0.00000000    
   8.2306095946187818E-002  -4.7330589295716359E-003   0.00000000    
   8.6285058263224190E-002  -3.3868815518860746E-003   0.00000000    
   8.9070061775640613E-002  -1.9854745095601359E-003   0.00000000    
   9.0251106606793502E-002  -5.6397697626954654E-004   0.00000000    
   9.0198064811517542E-002   8.6107964957930761E-004   0.00000000    
   8.8533918584373317E-002   2.2670339435350360E-003   0.00000000    
   8.5673785958769094E-002   3.6263585433322846E-003   0.00000000    
   8.1295631219176046E-002   4.9303119891182723E-003   0.00000000    
   7.5831988578415707E-002   6.1419359604228578E-003   0.00000000    
   6.9034678439180625E-002   7.2667569849156014E-003   0.00000000    
   6.1325127981902421E-002   8.2603854511472275E-003   0.00000000    
   5.2543889726773707E-002   9.1419066483516970E-003   0.00000000    
   4.3074179822192540E-002   9.8618866350125949E-003   0.00000000    
   3.2855385066285291E-002   1.0451342646028840E-002   0.00000000    
   2.2208660108494007E-002   1.0858513727565206E-002   0.00000000    
   1.1176892797706180E-002   1.1124011437416804E-002   0.00000000    
   0.0000000000000000        1.1196712591947353E-002   0.00000000    
   0.0000000000000000        2.2510265710461969E-002   0.00000000    
  -1.1328696073803426E-002   2.2315384338248409E-002   0.00000000    
  -2.2461257817014798E-002   2.1830815612347773E-002   0.00000000    
  -3.3303171444252815E-002   2.0967038097024493E-002   0.00000000    
  -4.3567243586571630E-002   1.9828442641306496E-002   0.00000000    
  -5.3264810122723508E-002   1.8342037676076797E-002   0.00000000    
  -6.2034265254017416E-002   1.6610401089776305E-002   0.00000000    
  -6.9990820792363559E-002   1.4582339368999523E-002   0.00000000    
  -7.6720489667830474E-002   1.2352884033344232E-002   0.00000000    
  -8.2434598262029507E-002   9.8967178654999158E-003   0.00000000    
  -8.6692999444889979E-002   7.2961871416591592E-003   0.00000000    
  -8.9790198410043584E-002   4.5542789409887298E-003   0.00000000    
  -9.1288629034638150E-002   1.7362448436154601E-003   0.00000000    
  -9.1548609734579137E-002  -1.1262115538813145E-003   0.00000000    
  -9.0164364057796625E-002  -3.9885163503717144E-003   0.00000000    
  -8.7541063935172275E-002  -6.7920440026597072E-003   0.00000000    
  -8.3332143365900183E-002  -9.5155607442117107E-003   0.00000000    
  -7.7963998616569274E-002  -1.2077475590978831E-002   0.00000000    
  -7.1172689895811311E-002  -1.4481518142901141E-002   0.00000000    
  -6.3380579040986651E-002  -1.6628944670767656E-002   0.00000000    
  -5.4423857196649418E-002  -1.8548875997958784E-002   0.00000000    
  -4.4695159430748414E-002  -2.0132545525718144E-002   0.00000000    
  -3.4141048954042220E-002  -2.1433519119077326E-002   0.00000000    
  -2.3099687600093923E-002  -2.2340761425343744E-002   0.00000000    
  -1.1630351971157910E-002  -2.2929803529952816E-002   0.00000000    
   5.5214562479638597E-006  -2.3094985487304348E-002   0.00000000    
   1.1641382017464707E-002  -2.2929714420272727E-002   0.00000000    
   2.3110641532451952E-002  -2.2340583417740024E-002   0.00000000    
   3.4151901243258516E-002  -2.1433253414889320E-002   0.00000000    
   4.4705848056649199E-002  -2.0132192797274844E-002   0.00000000    
   5.4434357336373584E-002  -1.8548438631443800E-002   0.00000000    
   6.3390830993268393E-002  -1.6628423791062684E-002   0.00000000    
   7.1182669894671119E-002  -1.4480917191132278E-002   0.00000000    
   7.7973650476286210E-002  -1.2076796006055129E-002   0.00000000    
   8.3341444890224103E-002  -9.5148069078068564E-003   0.00000000    
   8.7549963176758117E-002  -6.7912177412477390E-003   0.00000000    
   9.0172840691483444E-002  -3.9876228762570128E-003   0.00000000    
   9.1556617063203824E-002  -1.1252531280113189E-003   0.00000000    
   9.1296148895946783E-002   1.7372624841694509E-003   0.00000000    
   8.9797189916761153E-002   4.5553532516178661E-003   0.00000000    
   8.6699446869845931E-002   7.2973118784816450E-003   0.00000000    
   8.2440467103428505E-002   9.8978903358510218E-003   0.00000000    
   7.6725766892809369E-002   1.2354097671785575E-002   0.00000000    
   6.9995478404678874E-002   1.4583591289191835E-002   0.00000000    
   6.2038293010218480E-002   1.6611684412542911E-002   0.00000000    
   5.3268186995105667E-002   1.8343349517928473E-002   0.00000000    
   4.3569962178342386E-002   1.9829776066716411E-002   0.00000000    
   3.3305217633181922E-002   2.0968390198421800E-002   0.00000000    
   2.2462627161682156E-002   2.1832179299359242E-002   0.00000000    
   1.1329381484212666E-002   2.2316756601924070E-002   0.00000000    
   0.0000000000000000        2.2511639461415083E-002   0.00000000    
   0.0000000000000000        3.3962383071092207E-002   0.00000000    
  -1.1549493482588805E-002   3.3742792450735207E-002   0.00000000    
  -2.2950891568839647E-002   3.2938703211034454E-002   0.00000000    
  -3.3955046531956516E-002   3.1706554976993734E-002   0.00000000    
  -4.4522233045929657E-002   2.9921520203014130E-002   0.00000000    
  -5.4316088699166210E-002   2.7741718101721383E-002   0.00000000    
  -6.3406055152013571E-002   2.5071477881677913E-002   0.00000000    
  -7.1388479149792836E-002   2.2061577764073456E-002   0.00000000    
  -7.8436582197732030E-002   1.8652752996381396E-002   0.00000000    
  -8.4104490926060274E-002   1.4980201680506859E-002   0.00000000    
  -8.8658209590743858E-002   1.1026158375276523E-002   0.00000000    
  -9.1638393714950611E-002   6.9030260203011753E-003   0.00000000    
  -9.3387950544857601E-002   2.6368201654170006E-003   0.00000000    
  -9.3464539336451186E-002  -1.6888824150484111E-003   0.00000000    
  -9.2268028885227310E-002  -6.0052669302796549E-003   0.00000000    
  -8.9402987749324231E-002  -1.0262299973355421E-002   0.00000000    
  -8.5303133273006190E-002  -1.4352745380783271E-002   0.00000000    
  -7.9646867078117814E-002  -1.8263367441991848E-002   0.00000000    
  -7.2876447534485508E-002  -2.1856020339561175E-002   0.00000000    
  -6.4765812572630602E-002  -2.5155854059267964E-002   0.00000000    
  -5.5739366195322895E-002  -2.8003800794487270E-002   0.00000000    
  -4.5681293131300739E-002  -3.0463057511702196E-002   0.00000000    
  -3.4971948434630425E-002  -3.2365128396428640E-002   0.00000000    
  -2.3612411479871920E-002  -3.3808716540116440E-002   0.00000000    
  -1.1914488366286962E-002  -3.4627773312097467E-002   0.00000000    
   5.5163385783054485E-006  -3.4951559989631280E-002   0.00000000    
   1.1925489219033405E-002  -3.4627639511820074E-002   0.00000000    
   2.3623355104809236E-002  -3.3808449881328959E-002   0.00000000    
   3.4982771863237463E-002  -3.2364729503933251E-002   0.00000000    
   4.5691971391740159E-002  -3.0462529140039479E-002   0.00000000    
   5.5749838114376962E-002  -2.8003144243589660E-002   0.00000000    
   6.4776054064406355E-002  -2.5155073749161112E-002   0.00000000    
   7.2886400352695419E-002  -2.1855118191146154E-002   0.00000000    
   7.9656508387153435E-002  -1.8262349405314408E-002   0.00000000    
   8.5312408826546601E-002  -1.4351613905164488E-002   0.00000000    
   8.9411876503879897E-002  -1.0261062269334381E-002   0.00000000    
   9.2276481413725422E-002  -6.0039260647200355E-003   0.00000000    
   9.3472536470885575E-002  -1.6874466813814181E-003   0.00000000    
   9.3395448424047831E-002   2.6383472208478926E-003   0.00000000    
   9.1645375595273609E-002   6.9046352696417387E-003   0.00000000    
   8.8664637758427298E-002   1.1027845967916897E-002   0.00000000    
   8.4110351119546165E-002   1.4981957852936616E-002   0.00000000    
   7.8441843215449877E-002   1.8654573725072648E-002   0.00000000    
   7.1393129515823078E-002   2.2063452858518833E-002   0.00000000    
   6.3410070381845346E-002   2.5073403022654765E-002   0.00000000    
   5.4319460026930638E-002   2.7743682911408166E-002   0.00000000    
   4.4524942988028657E-002   2.9923520327024042E-002   0.00000000    
   3.3957089249481834E-002   3.1708580007370507E-002   0.00000000    
   2.2952256483400789E-002   3.2940748616455934E-002   0.00000000    
   1.1550177705598227E-002   3.3744847621977124E-002   0.00000000    
   0.0000000000000000        3.3964443548063987E-002   0.00000000    
   0.0000000000000000        4.5770850022306908E-002   0.00000000    
  -1.1889888447090451E-002   4.5374981507386031E-002   0.00000000    
  -2.3574516231381574E-002   4.4393814113867960E-002   0.00000000    
  -3.4959722445614072E-002   4.2642079253545559E-002   0.00000000    
  -4.5739794744910446E-002   4.0334528773245483E-002   0.00000000    
  -5.5935416846152913E-002   3.7319461150964434E-002   0.00000000    
  -6.5157829829610853E-002   3.3807388183636801E-002   0.00000000    
  -7.3539657067217684E-002   2.9691192372568790E-002   0.00000000    
  -8.0632607525385050E-002   2.5165465633792822E-002   0.00000000    
  -8.6672231720851506E-002   2.0176295410290809E-002   0.00000000    
  -9.1179113786929888E-002   1.4891938894657657E-002   0.00000000    
  -9.4477337890111118E-002   9.3169269120777828E-003   0.00000000    
  -9.6087870558066349E-002   3.5842820354196375E-003   0.00000000    
  -9.6404385798569844E-002  -2.2419673410482050E-003   0.00000000    
  -9.4980557446404407E-002  -8.0712478157354654E-003   0.00000000    
  -9.2257040058096609E-002  -1.3783604967463736E-002   0.00000000    
  -8.7850780913536305E-002  -1.9336281288002941E-002   0.00000000    
  -8.2224076852643879E-002  -2.4561529391608064E-002   0.00000000    
  -7.5083377983392263E-002  -2.9467704338528945E-002   0.00000000    
  -6.6885582030211901E-002  -3.3851328784567210E-002   0.00000000    
  -5.7446298657729974E-002  -3.7772783576030228E-002   0.00000000    
  -4.7189466446390736E-002  -4.1007707971548811E-002   0.00000000    
  -3.6051360694078619E-002  -4.3666656315311157E-002   0.00000000    
  -2.4396285696194998E-002  -4.5520528634638319E-002   0.00000000    
  -1.2283826420790437E-002  -4.6725071648736502E-002   0.00000000    
   5.4972930232078988E-006  -4.7062318158475079E-002   0.00000000    
   1.2294808480655018E-002  -4.6724893497851520E-002   0.00000000    
   2.4407191475959683E-002  -4.5520172818543501E-002   0.00000000    
   3.6062165325337632E-002  -4.3666125235250312E-002   0.00000000    
   4.7200107431632624E-002  -4.1007002973239726E-002   0.00000000    
   5.7456751776694535E-002  -3.7771909444058983E-002   0.00000000    
   6.6895787197741155E-002  -3.3850287676772117E-002   0.00000000    
   7.5093312033906304E-002  -2.9466503197144240E-002   0.00000000    
   8.2233683306096511E-002  -2.4560171241596145E-002   0.00000000    
   8.7860038088652240E-002  -1.9334774891791660E-002   0.00000000    
   9.2265895860460287E-002  -1.3781954012210699E-002   0.00000000    
   9.4988991998631728E-002  -8.0694627251021930E-003   0.00000000    
   9.6412352422943978E-002  -2.2400525104329227E-003   0.00000000    
   9.6095351557322350E-002   3.5863148743912159E-003   0.00000000    
   9.4484292439812725E-002   9.3190728264201279E-003   0.00000000    
   9.1185526585240845E-002   1.4894185286466083E-002   0.00000000    
   8.6678068333729874E-002   2.0178636943317309E-002   0.00000000    
   8.0637855294892119E-002   2.5167889021176816E-002   0.00000000    
   7.3544288223533927E-002   2.9693692073346215E-002   0.00000000    
   6.5161834419760881E-002   3.3809950420804841E-002   0.00000000    
   5.5938774034206613E-002   3.7322080168779352E-002   0.00000000    
   4.5742497320260977E-002   4.0337190687660306E-002   0.00000000    
   3.4961756424186634E-002   4.2644778315031724E-002   0.00000000    
   2.3575877358693820E-002   4.4396536142572378E-002   0.00000000    
   1.1890569719790701E-002   4.5377720601675574E-002   0.00000000    
   0.0000000000000000        4.5773592072109362E-002   0.00000000    
   0.0000000000000000        5.7851928754208082E-002   0.00000000    
  -1.2296130481290222E-002   5.7481133987637240E-002   0.00000000    
  -2.4438546951657529E-002   5.6115918118812370E-002   0.00000000    
  -3.6159554351295767E-002   5.4027401129443729E-002   0.00000000    
  -4.7426414013606109E-002   5.0997350969464394E-002   0.00000000    
  -5.7871810617120205E-002   4.7298869840320071E-002   0.00000000    
  -6.7583766830631845E-002   4.2763560621932033E-002   0.00000000    
  -7.6116755815309842E-002   3.7651048186512874E-002   0.00000000    
  -8.3672650442680685E-002   3.1855666606868470E-002   0.00000000    
  -8.9755263539103375E-002   2.5609543551983520E-002   0.00000000    
  -9.4667450990332733E-002   1.8878971706608540E-002   0.00000000    
  -9.7894503136474603E-002   1.1856381921096861E-002   0.00000000    
  -9.9822302488420264E-002   4.5843701973521840E-003   0.00000000    
  -9.9952153269306454E-002  -2.7944781902390905E-003   0.00000000    
  -9.8730835129294106E-002  -1.0162672595693874E-002   0.00000000    
  -9.5709921999307779E-002  -1.7435399706440143E-002   0.00000000    
  -9.1371720299662132E-002  -2.4427736802928438E-002   0.00000000    
  -8.5349151097882672E-002  -3.1118136425070414E-002   0.00000000    
  -7.8132405483074999E-002  -3.7267331438690716E-002   0.00000000    
  -6.9460913852745929E-002  -4.2919778813152711E-002   0.00000000    
  -5.9803915270049732E-002  -4.7799405343318530E-002   0.00000000    
  -4.9024422675421807E-002  -5.2016200772129824E-002   0.00000000    
  -3.7541973242041143E-002  -5.5277508670497126E-002   0.00000000    
  -2.5350862999050018E-002  -5.7754651441405104E-002   0.00000000    
  -1.2793821967260036E-002  -5.9159239177783901E-002   0.00000000    
   5.4832625426279872E-006  -5.9715569585033566E-002   0.00000000    
   1.2804756339022595E-002  -5.9159016347402213E-002   0.00000000    
   2.5361740712058788E-002  -5.7754207365923682E-002   0.00000000    
   3.7552730648629247E-002  -5.5276844394882563E-002   0.00000000    
   4.9035035659539435E-002  -5.2015320900836347E-002   0.00000000    
   5.9814322060907955E-002  -4.7798312024759218E-002   0.00000000    
   6.9471091188191461E-002  -4.2918479485026750E-002   0.00000000    
   7.8142294736074952E-002  -3.7265829318119302E-002   0.00000000    
   8.5358730204313685E-002  -3.1116441510524690E-002   0.00000000    
   9.1380934669476555E-002  -2.4425853156220690E-002   0.00000000    
   9.5718751200400840E-002  -1.7433339460102341E-002   0.00000000    
   9.8739229649592655E-002  -1.0160440865118685E-002   0.00000000    
   9.9960094613390685E-002  -2.7920888953748245E-003   0.00000000    
   9.9829746855702173E-002   4.5869111741084030E-003   0.00000000    
   9.7901434356930980E-002   1.1859059294171689E-002   0.00000000    
   9.4673831473969877E-002   1.8881779128022899E-002   0.00000000    
   8.9761079574858682E-002   2.5612464688867291E-002   0.00000000    
   8.3677871014816038E-002   3.1858694697528105E-002   0.00000000    
   7.6121369877724776E-002   3.7654166307084146E-002   0.00000000    
   6.7587750241912062E-002   4.2766761656759814E-002   0.00000000    
   5.7875154954503585E-002   4.7302136536633510E-002   0.00000000    
   4.7429101979268022E-002   5.1000676189966496E-002   0.00000000    
   3.6161580390702705E-002   5.4030767408045258E-002   0.00000000    
   2.4439900643080298E-002   5.6119318129813044E-002   0.00000000    
   1.2296809056943702E-002   5.7484550070183195E-002   0.00000000    
   0.0000000000000000        5.7855353664278464E-002   0.00000000    
   0.0000000000000000        7.0532093836962087E-002   0.00000000    
  -1.2824911302464978E-002   6.9923161159451172E-002   0.00000000    
  -2.5429578332120020E-002   6.8422124944166357E-002   0.00000000    
  -3.7721300185000202E-002   6.5735073927722029E-002   0.00000000    
  -4.9362984782158004E-002   6.2199372878940021E-002   0.00000000    
  -6.0392288966474604E-002   5.7572698922571545E-002   0.00000000    
  -7.0373890173863640E-002   5.2184439287157054E-002   0.00000000    
  -7.9471209503696003E-002   4.5861627814563218E-002   0.00000000    
  -8.7176699151220047E-002   3.8907621392258597E-002   0.00000000    
  -9.3768307539379647E-002   3.1232959959867843E-002   0.00000000    
  -9.8698424684847616E-002   2.3099009790189442E-002   0.00000000    
 -0.10234257347238612        1.4508694180676688E-002   0.00000000    
 -0.10414941788025994        5.6678513070915716E-003   0.00000000    
 -0.10457037442221531       -3.3260028780899950E-003   0.00000000    
 -0.10308820904101282       -1.2333482129000100E-002   0.00000000    
 -0.10020479984741695       -2.1167763700201722E-002   0.00000000    
  -9.5473178234884867E-002  -2.9764047135449223E-002   0.00000000    
  -8.9417456956090074E-002  -3.7858968052013685E-002   0.00000000    
  -8.1692182516471229E-002  -4.5467371178783432E-002   0.00000000    
  -7.2813669820601695E-002  -5.2268595108340948E-002   0.00000000    
  -6.2561460724204848E-002  -5.8358648302812698E-002   0.00000000    
  -5.1413371787169843E-002  -6.3383391222739283E-002   0.00000000    
  -3.9287651035102372E-002  -6.7517340190555608E-002   0.00000000    
  -2.6593663986410509E-002  -7.0398769188095511E-002   0.00000000    
  -1.3391468437107357E-002  -7.2273209939360997E-002   0.00000000    
   5.4539665749149352E-006  -7.2796678448787594E-002   0.00000000    
   1.3402364413429993E-002  -7.2272942998807516E-002   0.00000000    
   2.6604483394411658E-002  -7.0398235995710240E-002   0.00000000    
   3.9298370163005240E-002  -6.7516544445282128E-002   0.00000000    
   5.1423927360336782E-002  -6.3382334843875746E-002   0.00000000    
   6.2571829592168338E-002  -5.8357338593295761E-002   0.00000000    
   7.2823791281728084E-002  -5.2267035308878169E-002   0.00000000    
   8.1702034384260380E-002  -4.5465571853681185E-002   0.00000000    
   8.9426982204859173E-002  -3.7856933576343746E-002   0.00000000    
   9.5482356104556854E-002  -2.9761790934048706E-002   0.00000000    
  0.10021357809144667       -2.1165291214106929E-002   0.00000000    
  0.10309656859396643       -1.2330809266191173E-002   0.00000000    
  0.10457826854892614       -3.3231361128974925E-003   0.00000000    
  0.10415682964162042        5.6708941558071208E-003   0.00000000    
  0.10234946214594501        1.4511905916541086E-002   0.00000000    
   9.8704775697243882E-002   2.3102371246943754E-002   0.00000000    
   9.3774086749931651E-002   3.1236463311274335E-002   0.00000000    
   8.7181894509237801E-002   3.8911246584707807E-002   0.00000000    
   7.9475793577419254E-002   4.5865366627509029E-002   0.00000000    
   7.0377853499429280E-002   5.2188271029068645E-002   0.00000000    
   6.0395611062887801E-002   5.7576615215009876E-002   0.00000000    
   4.9365658868305289E-002   6.2203352885476057E-002   0.00000000    
   3.7723312542188650E-002   6.5739109075670668E-002   0.00000000    
   2.5430924912340440E-002   6.8426194210946450E-002   0.00000000    
   1.2825585254575837E-002   6.9927255730268686E-002   0.00000000    
   0.0000000000000000        7.0536192786699814E-002   0.00000000    
   0.0000000000000000        8.3612215205034660E-002   0.00000000    
  -1.3414564688059457E-002   8.3083604503744801E-002   0.00000000    
  -2.6667864102009959E-002   8.1120736690578607E-002   0.00000000    
  -3.9464201593865308E-002   7.8125610242042259E-002   0.00000000    
  -5.1783081992626934E-002   7.3770490056846716E-002   0.00000000    
  -6.3209402532218614E-002   6.8458295097929764E-002   0.00000000    
  -7.3861509976543588E-002   6.1933640041599312E-002   0.00000000    
  -8.3228494726173677E-002   5.4577819605757798E-002   0.00000000    
  -9.1558137790464178E-002   4.6227650317689328E-002   0.00000000    
  -9.8275082903220110E-002   3.7222572770527013E-002   0.00000000    
 -0.10374066482503144        2.7506183738950269E-002   0.00000000    
 -0.10735254894556685        1.7358641089360981E-002   0.00000000    
 -0.10956436648307008        6.8376537021785505E-003   0.00000000    
 -0.10978784201448578       -3.8502855741770568E-003   0.00000000    
 -0.10854334945643912       -1.4534770348447952E-002   0.00000000    
 -0.10529797959867665       -2.5094167248221357E-002   0.00000000    
 -0.10061000480010621       -3.5256153289521454E-002   0.00000000    
  -9.4039739294837513E-002  -4.4991761735957633E-002   0.00000000    
  -8.6152170224704991E-002  -5.3946334569900278E-002   0.00000000    
  -7.6631639862021608E-002  -6.2187588141308196E-002   0.00000000    
  -6.6017328120919205E-002  -6.9305089888104521E-002   0.00000000    
  -5.4138483164009162E-002  -7.5462797161079107E-002   0.00000000    
  -4.1475840160539443E-002  -8.0225211929986065E-002   0.00000000    
  -2.8012861191498008E-002  -8.3846777294610722E-002   0.00000000    
  -1.4140695078544152E-002  -8.5898477474439600E-002   0.00000000    
   5.4289309080376613E-006  -8.6713371274260875E-002   0.00000000    
   1.4151520305512071E-002  -8.5898165942224658E-002   0.00000000    
   2.8023630700558879E-002  -8.3846156407621733E-002   0.00000000    
   4.1486489261395615E-002  -8.0224283191004192E-002   0.00000000    
   5.4148989150232418E-002  -7.5461567106496805E-002   0.00000000    
   6.6027628427233434E-002  -6.9303561469161890E-002   0.00000000    
   7.6641712445662341E-002  -6.2185771921681121E-002   0.00000000    
   8.6161955693735096E-002  -5.3944234956960081E-002   0.00000000    
   9.4049216741297584E-002  -4.4989392906436589E-002   0.00000000    
  0.10061911926267579       -3.5253521078908612E-002   0.00000000    
  0.10530671173004595       -2.5091288814379692E-002   0.00000000    
  0.10855164959471018       -1.4531652749115592E-002   0.00000000    
  0.10979569264743232       -3.8469486138079873E-003   0.00000000    
  0.10957172383340377        6.8412020037951380E-003   0.00000000    
  0.10735939772859113        1.7362379027581823E-002   0.00000000    
  0.10374696773737711        2.7510102525320282E-002   0.00000000    
   9.8280827006830648E-002   3.7226649403055152E-002   0.00000000    
   9.1563292539060828E-002   4.6231875436710368E-002   0.00000000    
   8.3233049767922992E-002   5.4582169483440642E-002   0.00000000    
   7.3865441625052791E-002   6.1938104860328774E-002   0.00000000    
   6.3212702915654131E-002   6.8462850807949949E-002   0.00000000    
   5.1785734246294797E-002   7.3775126786001011E-002   0.00000000    
   3.9466200498958368E-002   7.8130303745084034E-002   0.00000000    
   2.6669199544757900E-002   8.1125476841752142E-002   0.00000000    
   1.3415234090991664E-002   8.3088366858273130E-002   0.00000000    
   0.0000000000000000        8.3616989726282148E-002   0.00000000    
   0.0000000000000000        9.7540742803632466E-002   0.00000000    
  -1.4130345674902504E-002   9.6701014205926403E-002   0.00000000    
  -2.8020028906368500E-002   9.4647336615404670E-002   0.00000000    
  -4.1580334048461877E-002   9.0956679759821996E-002   0.00000000    
  -5.4429199772234128E-002   8.6108193598565960E-002   0.00000000    
  -6.6631107235909898E-002   7.9749846161040361E-002   0.00000000    
  -7.7682783425517807E-002   7.2346899418021110E-002   0.00000000    
  -8.7794659435635039E-002   6.3644447317204977E-002   0.00000000    
  -9.6371758976013730E-002   5.4068791804887932E-002   0.00000000    
 -0.10375581110114962        4.3483454524884078E-002   0.00000000    
 -0.10929778027075425        3.2253879389416741E-002   0.00000000    
 -0.11344986935029802        2.0375944285699724E-002   0.00000000    
 -0.11555254649946914        8.1358711723238317E-003   0.00000000    
 -0.11614273034777679       -4.3338183862756232E-003   0.00000000    
 -0.11459661331361493       -1.6840821515409589E-002   0.00000000    
 -0.11150627441693686       -2.9122799914727934E-002   0.00000000    