 <VTKFile type="UnstructuredGrid" version="0.1" byte_order="BigEndian">
 <UnstructuredGrid>
 <Piece NumberOfPoints="        2601 " NumberOfCells="        2500 ">
 <PointData Scalars="scalars">
 <DataArray type="Float32" NumberOfComponents="3" Name="Velocity" Format="ascii">
   0.0000000000000000        0.0000000000000000        0.00000000    
  -8.6925091118040726E-002   0.0000000000000000        0.00000000    
 -0.17291837629668666        0.0000000000000000        0.00000000    
 -0.25721240580008536        0.0000000000000000        0.00000000    
 -0.33868427498239467        0.0000000000000000        0.00000000    
 -0.41668663243681531        0.0000000000000000        0.00000000    
 -0.48990582373119607        0.0000000000000000        0.00000000    
 -0.55775990646094031        0.0000000000000000        0.00000000    
 -0.61878673302246590        0.0000000000000000        0.00000000    
 -0.67241383824776380        0.0000000000000000        0.00000000    
 -0.71713413055563247        0.0000000000000000        0.00000000    
 -0.75234381218950330        0.0000000000000000        0.00000000    
 -0.77667239871456872        0.0000000000000000        0.00000000    
 -0.78948470214481803        0.0000000000000000        0.00000000    
 -0.78980370189232252        0.0000000000000000        0.00000000    
 -0.77703182215031208        0.0000000000000000        0.00000000    
 -0.75087358570514051        0.0000000000000000        0.00000000    
 -0.71092038485948783        0.0000000000000000        0.00000000    
 -0.65778360695381521        0.0000000000000000        0.00000000    
 -0.59145580833460631        0.0000000000000000        0.00000000    
 -0.51350381024342329        0.0000000000000000        0.00000000    
 -0.42453377482845400        0.0000000000000000        0.00000000    
 -0.32687328235657687        0.0000000000000000        0.00000000    
 -0.22187354218537417        0.0000000000000000        0.00000000    
 -0.11222318409688611        0.0000000000000000        0.00000000    
   4.6138029209181085E-006   0.0000000000000000        0.00000000    
  0.11223238602346108        0.0000000000000000        0.00000000    
  0.22188264688737583        0.0000000000000000        0.00000000    
  0.32688224017071665        0.0000000000000000        0.00000000    
  0.42454252004001208        0.0000000000000000        0.00000000    
  0.51351229849788782        0.0000000000000000        0.00000000    
  0.59146398566648895        0.0000000000000000        0.00000000    
  0.65779143689404096        0.0000000000000000        0.00000000    
  0.71092782772005569        0.0000000000000000        0.00000000    
  0.75088061505381709        0.0000000000000000        0.00000000    
  0.77703841335967516        0.0000000000000000        0.00000000    
  0.78980983906489766        0.0000000000000000        0.00000000    
  0.78949037513127274        0.0000000000000000        0.00000000    
  0.77667760154717458        0.0000000000000000        0.00000000    
  0.75234854559998598        0.0000000000000000        0.00000000    
  0.71713839514272004        0.0000000000000000        0.00000000    
  0.67241764178308128        0.0000000000000000        0.00000000    
  0.61879008017816561        0.0000000000000000        0.00000000    
  0.55776280849634874        0.0000000000000000        0.00000000    
  0.48990828762684863        0.0000000000000000        0.00000000    
  0.41668866999131648        0.0000000000000000        0.00000000    
  0.33868589238735930        0.0000000000000000        0.00000000    
  0.25721361287606648        0.0000000000000000        0.00000000    
  0.17291917722924055        0.0000000000000000        0.00000000    
   8.6925490835271360E-002   0.0000000000000000        0.00000000    
   0.0000000000000000        0.0000000000000000        0.00000000    
   0.0000000000000000        8.7097509927287445E-002   0.00000000    
  -8.6848675844791959E-002   8.6677726852589829E-002   0.00000000    
 -0.17285855848670550        8.5326910579455212E-002   0.00000000    
 -0.25700801225241932        8.3118041917665683E-002   0.00000000    
 -0.33860448322382053        7.9951766850762732E-002   0.00000000    
 -0.41642809436526823        7.5875669596928846E-002   0.00000000    
 -0.48988212105903894        7.0799015233546592E-002   0.00000000    
 -0.55756607150975868        6.4740483657242040E-002   0.00000000    
 -0.61892162685210639        5.7643362574943006E-002   0.00000000    
 -0.67243608210630834        4.9499660752935097E-002   0.00000000    
 -0.71753647182745317        4.0322482412216330E-002   0.00000000    
 -0.75273768287976162        3.0089869621423945E-002   0.00000000    
 -0.77742414663621340        1.8926638033658735E-002   0.00000000    
 -0.79036146989560208        6.8244439985269845E-003   0.00000000    
 -0.79091806430140010       -5.9473966368712352E-003   0.00000000    
 -0.77839820665425374       -1.9342889714599468E-002   0.00000000    
 -0.75226150399139113       -3.2950600514636948E-002   0.00000000    
 -0.71263333503915294       -4.6629322571187702E-002   0.00000000    
 -0.65925292173760430       -5.9886423945006609E-002   0.00000000    
 -0.59322715484049826       -7.2465698864066758E-002   0.00000000    
 -0.51480316720640740       -8.3908845864869186E-002   0.00000000    
 -0.42599952199945085       -9.3863395366559521E-002   0.00000000    
 -0.32776332039611367      -0.10203186056065081        0.00000000    
 -0.22270347982463318      -0.10802628308284369        0.00000000    
 -0.11253909633875296      -0.11178702204596463        0.00000000    
   4.5972295636861640E-006 -0.11298303334150574        0.00000000    
  0.11254825461299149      -0.11178696018179583        0.00000000    
  0.22271255101237550      -0.10802616063590013        0.00000000    
  0.32777223504282055      -0.10203167957862913        0.00000000    
  0.42600823281578398       -9.3863159915530611E-002   0.00000000    
  0.51481161360894079       -8.3908559944883429E-002   0.00000000    
  0.59323529617815185       -7.2465368796444163E-002   0.00000000    
  0.65926071114705920       -5.9886054692603517E-002   0.00000000    
  0.71264074115337928       -4.6628921448511211E-002   0.00000000    
  0.75226849471263335       -3.2950172732224239E-002   0.00000000    
  0.77840476091435684       -1.9342442896326334E-002   0.00000000    
  0.79092416511691666       -5.9469359735184373E-003   0.00000000    
  0.79036710730679227        6.8249109258891986E-003   0.00000000    
  0.77742931681698868        1.8927108490843791E-002   0.00000000    
  0.75274238322907006        3.0090338418125660E-002   0.00000000    
  0.71754070747499377        4.0322947140985825E-002   0.00000000    
  0.67243985633739789        4.9500118492706489E-002   0.00000000    
  0.61892495031337236        5.7643811984941541E-002   0.00000000    
  0.55756895026033959        6.4740924078555945E-002   0.00000000    
  0.48988456698345945        7.0799445778492676E-002   0.00000000    
  0.41643011450861367        7.5876091174557861E-002   0.00000000    
  0.33860608889950011        7.9952179890690186E-002   0.00000000    
  0.25700920879958672        8.3118448335592579E-002   0.00000000    
  0.17285935339922004        8.5327311939968342E-002   0.00000000    
   8.6849072006507932E-002   8.6678125458560268E-002   0.00000000    
   0.0000000000000000        8.7097907200626434E-002   0.00000000    
   0.0000000000000000       0.17412432526601418        0.00000000    
  -8.6700851948447871E-002  0.17320184744270334        0.00000000    
 -0.17249000854715263       0.17060323718676024        0.00000000    
 -0.25662924666231635       0.16613181470927929        0.00000000    
 -0.33800516039812351       0.15991178574813883        0.00000000    
 -0.41600876822181243       0.15174427577844174        0.00000000    
 -0.48932098266586194       0.14169805541107647        0.00000000    
 -0.55740667119006049       0.12961248640077697        0.00000000    
 -0.61877607000753432       0.11549771669342349        0.00000000    
 -0.67290733173615902        9.9292424678430261E-002   0.00000000    
 -0.71823574000093215        8.0959915952261388E-002   0.00000000    
 -0.75420027040519300        6.0619575078264536E-002   0.00000000    
 -0.77934115408431359        3.8225675665659251E-002   0.00000000    
 -0.79303967862799074        1.4162647686282311E-002   0.00000000    
 -0.79421302735621291       -1.1554265802850353E-002   0.00000000    
 -0.78223565195966283       -3.8231864403073836E-002   0.00000000    
 -0.75672816874168336       -6.5704424778415649E-002   0.00000000    
 -0.71720403021226775       -9.3026420960114403E-002   0.00000000    
 -0.66426238180417618      -0.11981000466311666        0.00000000    
 -0.59778348737068543      -0.14504539870794930        0.00000000    
 -0.51942127570201502      -0.16811396653199714        0.00000000    
 -0.42966941115218360      -0.18821240708445980        0.00000000    
 -0.33101731006128682      -0.20456977565833384        0.00000000    
 -0.22474588716817501      -0.21681825646643080        0.00000000    
 -0.11371103056552273      -0.22419291457361867        0.00000000    
   4.5365680205974508E-006 -0.22683502764388147        0.00000000    
  0.11372007809439763      -0.22419279091737823        0.00000000    
  0.22475483704532084      -0.21681801107329357        0.00000000    
  0.33102611317082226      -0.20456941431378836        0.00000000    
  0.42967800164704467      -0.18821193555081334        0.00000000    
  0.51942960970577812      -0.16811339578960635        0.00000000    
  0.59779151037983536      -0.14504473740309343        0.00000000    
  0.66427005764198799      -0.11980926754823690        0.00000000    
  0.71721131960438844       -9.3025617958800988E-002   0.00000000    
  0.75673504624215182       -6.5703571589787652E-002   0.00000000    
  0.78224209393970179       -3.8230971009212522E-002   0.00000000    
  0.79421901949041396       -1.1553348424408418E-002   0.00000000    
  0.79304521159651142        1.4163580468831682E-002   0.00000000    
  0.77934622196010117        3.8226612591089511E-002   0.00000000    
  0.75420487600362429        6.0620509515843302E-002   0.00000000    
  0.71823988464915578        8.0960840692439043E-002   0.00000000    
  0.67291102503599509        9.9293335171953476E-002   0.00000000    
  0.61877931743779335       0.11549860998939952        0.00000000    
  0.55740948516208633       0.12961336110537031        0.00000000    
  0.48932337021042432       0.14169891092671075        0.00000000    
  0.41601074195878368       0.15174511197439952        0.00000000    
  0.33800672667888065       0.15991260609397198        0.00000000    
  0.25663041492000938       0.16613262097323658        0.00000000    
  0.17249078323914593       0.17060403390195625        0.00000000    
   8.6701238576007672E-002  0.17320263750958606        0.00000000    
   0.0000000000000000       0.17412511386808033        0.00000000    
   0.0000000000000000       0.26081650659571637        0.00000000    
  -8.6369856664418071E-002  0.25958172140048585        0.00000000    
 -0.17194968378670153       0.25559369338921867        0.00000000    
 -0.25574806118323795       0.24908032012605058        0.00000000    
 -0.33713908867756992       0.23973156696821477        0.00000000    
 -0.41490913343882707       0.22769949188307603        0.00000000    
 -0.48854671793171051       0.21269398183463573        0.00000000    
 -0.55662179081937846       0.19477866397206073        0.00000000    
 -0.61867651829531256       0.17375700643823783        0.00000000    
 -0.67311600328010779       0.14960522131413354        0.00000000    
 -0.71946842394026589       0.12232928599894470        0.00000000    
 -0.75610025484300691        9.1847902394135691E-002   0.00000000    
 -0.78246686173861679        5.8506172818624802E-002   0.00000000    
 -0.79712756124544648        2.2242706451338419E-002   0.00000000    
 -0.79944989521952026       -1.6137312274874752E-002   0.00000000    
 -0.78852721527575398       -5.6547545968090786E-002   0.00000000    
 -0.76371566516404155       -9.7706451464008109E-002   0.00000000    
 -0.72502446540790966      -0.13923840989874012        0.00000000    
 -0.67199311129147343      -0.17956969758213301        0.00000000    
 -0.60580311632876549      -0.21795327685535293        0.00000000    
 -0.52645732401820811      -0.25291277564365411        0.00000000    
 -0.43625015485917867      -0.28337131694218126        0.00000000    
 -0.33592164271428765      -0.30839016541386799        0.00000000    
 -0.22844764838539633      -0.32674197164746643        0.00000000    
 -0.11546609498066328      -0.33828429768277707        0.00000000    
   4.4416349238181658E-006 -0.34192843703996095        0.00000000    
  0.11547494147747937      -0.33828411164632882        0.00000000    
  0.22845640820439983      -0.32674160430494797        0.00000000    
  0.33593024558439744      -0.30838962230213296        0.00000000    
  0.43625855432947258      -0.28337061116113366        0.00000000    
  0.52646545891535712      -0.25291191808429980        0.00000000    
  0.60581094714708117      -0.21795228729386165        0.00000000    
  0.67200059097632536      -0.17956859041891446        0.00000000    
  0.72503156349280673      -0.13923720889992025        0.00000000    
  0.76372235099341768       -9.7705172125496051E-002   0.00000000    
  0.78853347034368437       -5.6546212441999380E-002   0.00000000    
  0.79945570507782748       -1.6135939972945698E-002   0.00000000    
  0.79713291676149611        2.2244097818611135E-002   0.00000000    
  0.78247176220183745        5.8507571305181645E-002   0.00000000    
  0.75610469949883508        9.1849293355637032E-002   0.00000000    
  0.71947242156917035       0.12233066219264500        0.00000000    
  0.67311955833187931       0.14960657427997714        0.00000000    
  0.61867964380003615       0.17375833267885163        0.00000000    
  0.55662449374855594       0.19477996176613513        0.00000000    
  0.48854901227375153       0.21269524927573674        0.00000000    
  0.41491102619967413       0.22770073154270329        0.00000000    
  0.33714059169177013       0.23973278105359752        0.00000000    
  0.25574918026187815       0.24908151460944303        0.00000000    
  0.17195042666400270       0.25559487165238171        0.00000000    
   8.6370226566214112E-002  0.25958289095970455        0.00000000    
   0.0000000000000000       0.26081767223516811        0.00000000    
   0.0000000000000000       0.34724573902997469        0.00000000    
  -8.5916887007367646E-002  0.34544051801705522        0.00000000    
 -0.17098071765142439       0.34037983976602254        0.00000000    
 -0.25453745153318852       0.33165056975187474        0.00000000    
 -0.33550333656784964       0.31951951413588764        0.00000000    
 -0.41338115893573030       0.30356069511525197        0.00000000    
 -0.48683990422369827       0.28393039087486210        0.00000000    
 -0.55548523401231775       0.26026393864255265        0.00000000    
 -0.61775096313819811       0.23259346828649979        0.00000000    
 -0.67327617227966019       0.20073473164116432        0.00000000    
 -0.72032705157807364       0.16460435220011876        0.00000000    
 -0.75849225317277691       0.12437114306972692        0.00000000    
 -0.78603594993875014        7.9894508324303407E-002   0.00000000    
 -0.80241879770905133        3.1899188362888735E-002   0.00000000    
 -0.80621215796086843       -1.9676832051186192E-002   0.00000000    
 -0.79673126953015161       -7.3410329049350451E-002   0.00000000    
 -0.77330428569116549      -0.12908093934604015        0.00000000    
 -0.73521401864165647      -0.18464412804112054        0.00000000    
 -0.68300198527409739      -0.23940610879703200        0.00000000    
 -0.61618650476739589      -0.29112108482109866        0.00000000    
 -0.53671396937668192      -0.33856204158113556        0.00000000    
 -0.44469205646943616      -0.37994988061943663        0.00000000    
 -0.34316918368901206      -0.41366173617244145        0.00000000    
 -0.23315693327589387      -0.43895539594739397        0.00000000    
 -0.11807583035750013      -0.45413228110967291        0.00000000    
   4.2995646816738761E-006 -0.45962987182072745        0.00000000    
  0.11808440487583463      -0.45413203368914362        0.00000000    
  0.23316540968328359      -0.43895490520016067        0.00000000    
  0.34317751457053020      -0.41366101399057809        0.00000000    
  0.44470017455072025      -0.37994893770837318        0.00000000    
  0.53672183182408106      -0.33856090094463515        0.00000000    
  0.61619405652403103      -0.29111976356700631        0.00000000    
  0.68300919226591605      -0.23940463742795381        0.00000000    
  0.73522084263772336      -0.18464252665225370        0.00000000    
  0.77331070318377748      -0.12907924163837492        0.00000000    
  0.79673726013489932       -7.3408556242860051E-002   0.00000000    
  0.80621770949948557       -1.9675014753641404E-002   0.00000000    
  0.80242390603868152        3.1901032286067832E-002   0.00000000    
  0.78604061209893716        7.9896355477517361E-002   0.00000000    
  0.75849647637483886       0.12437298013039530        0.00000000    
  0.72033083903510842       0.16460616506691794        0.00000000    
  0.67327953783642425       0.20073651241164200        0.00000000    
  0.61775391349373310       0.23259521147109105        0.00000000    
  0.55548778511702390       0.26026564131937013        0.00000000    
  0.48684206398842500       0.28393205336068461        0.00000000    
  0.41338294162581235       0.30356231838635306        0.00000000    
  0.33550474881502412       0.31952110479970969        0.00000000    
  0.25453850380177795       0.33165213157133822        0.00000000    
  0.17098141485997695       0.34038138195485557        0.00000000    
   8.5917234783595739E-002  0.34544204605880119        0.00000000    
   0.0000000000000000       0.34724726386529103        0.00000000    
   0.0000000000000000       0.43288944343823776        0.00000000    
  -8.5195510558396081E-002  0.43091043551068231        0.00000000    
 -0.16969272874519867       0.42447219516942375        0.00000000    
 -0.25255981302940150       0.41398325630429694        0.00000000    
 -0.33329606265421374       0.39889018522811936        0.00000000    
 -0.41070583557114720       0.37947884172869972        0.00000000    
 -0.48444278667913881       0.35520916175706918        0.00000000    
 -0.55302943464088516       0.32621836573330670        0.00000000    
 -0.61621518234336647       0.29209173644818576        0.00000000    
 -0.67225390081719594       0.25280160828985787        0.00000000    
 -0.72090486686160504       0.20824053588616687        0.00000000    
 -0.76023818833450996       0.15823469581208213        0.00000000    
 -0.78990609531694156       0.10324377020415546        0.00000000    
 -0.80802065683613999        4.3048544567421548E-002   0.00000000    
 -0.81401180418659680       -2.1040474451698092E-002   0.00000000    
 -0.80647266083980007       -8.9065514754635672E-002   0.00000000    
 -0.78458954549607318      -0.15873465162738579        0.00000000    
 -0.74805891349300024      -0.22961011649904800        0.00000000    
 -0.69600172191055365      -0.29870814910624927        0.00000000    
 -0.62975084112785185      -0.36488421259883513        0.00000000    
 -0.54874322960511568      -0.42527786913170690        0.00000000    
 -0.45594887754584362      -0.47804912911491770        0.00000000    
 -0.35157567019552166      -0.52145737992939434        0.00000000    
 -0.23950010867721094      -0.55324637810930677        0.00000000    
 -0.12107797379234427      -0.57334335123502389        0.00000000    
   4.1206879187853120E-006 -0.57957984125449413        0.00000000    
  0.12108617739275129      -0.57334304142802772        0.00000000    
  0.23950822751027195      -0.55324576687019633        0.00000000    
  0.35158363209961613      -0.52145647578450238        0.00000000    
  0.45595663803115288      -0.47804795394775451        0.00000000    
  0.54875072611965714      -0.42527644114652735        0.00000000    
  0.62975803623039017      -0.36488256659049118        0.00000000    
  0.69600856860477756      -0.29870630931811243        0.00000000    
  0.74806538362891217      -0.22960812397496497        0.00000000    
  0.78459561206263106      -0.15873253498190054        0.00000000    
  0.80647830805060061       -8.9063314642093605E-002   0.00000000    
  0.81401702333610715       -2.1038217332516842E-002   0.00000000    
  0.80802544238395702        4.3050825479927154E-002   0.00000000    
  0.78991045341600807       0.10324605398653638        0.00000000    
  0.76024212109861089       0.15823696053698372        0.00000000    
  0.72090838841734073       0.20824276804244959        0.00000000    
  0.67225701774664237       0.25280379629774230        0.00000000    
  0.61621791268078163       0.29209387418897448        0.00000000    
  0.55303178710393652       0.32622045097946484        0.00000000    
  0.48444477822988891       0.35521119392618911        0.00000000    
  0.41070747392956675       0.37948082558383617        0.00000000    
  0.33329736136438715       0.39889212539942509        0.00000000    
  0.25256077813835720       0.41398516219644604        0.00000000    
  0.16969336895747777       0.42447407324265490        0.00000000    
   8.5195829165702952E-002  0.43091229870569697        0.00000000    
   0.0000000000000000       0.43289129950419236        0.00000000    
   0.0000000000000000       0.51793461756379244        0.00000000    
  -8.4260445931335873E-002  0.51532238130481944        0.00000000    
 -0.16775928907119506       0.50805747401042023        0.00000000    
 -0.24996965886774306       0.49547659427539809        0.00000000    
 -0.32986067861823493       0.47802527899174008        0.00000000    
 -0.40710676103575372       0.45500076451386801        0.00000000    
 -0.48037173119873305       0.42669032081086095        0.00000000    
 -0.54949058499316883       0.39244386731499836        0.00000000    
 -0.61279358117541827       0.35235613666512827        0.00000000    
 -0.67021040912035068       0.30599391022522004        0.00000000    
 -0.71974495705953079       0.25323490231427148        0.00000000    
 -0.76130471369867414       0.19413455930180229        0.00000000    
 -0.79267540740499554       0.12838365737716978        0.00000000    
 -0.81356306569867198        5.6912024377297588E-002   0.00000000    
 -0.82186487567647060       -2.0609852156794631E-002   0.00000000    
 -0.81690524095024974      -0.10199377314259439        0.00000000    
 -0.79736004798308580      -0.18723356253673301        0.00000000    
 -0.76215856001222482      -0.27284218905740709        0.00000000    
 -0.71164223398057613      -0.35804846103646110        0.00000000    
 -0.64464570179700231      -0.43879018247967128        0.00000000    
 -0.56371743650359241      -0.51330664830750472        0.00000000    
 -0.46814518027001928      -0.57838583178692549        0.00000000    
 -0.36221652650794806      -0.63142141473495905        0.00000000    
 -0.24626170246447016      -0.67131160593236772        0.00000000    
 -0.12490128620979861      -0.69505955322186064        0.00000000    
   3.8881149116114262E-006 -0.70384978695541878        0.00000000    
  0.12490904014674899      -0.69505918334653549        0.00000000    
  0.24626935815814763      -0.67131087175092896        0.00000000    
  0.36222403955729132      -0.63142033395900776        0.00000000    
  0.46815248159428496      -0.57838442010686031        0.00000000    
  0.56372448650543439      -0.51330494154188999        0.00000000    
  0.64465244407269384      -0.43878820611344987        0.00000000    
  0.71164863677253176      -0.35804626371395576        0.00000000    
  0.76216458794911057      -0.27283980265409885        0.00000000    
  0.79736568044468148      -0.18723104072558963        0.00000000    
  0.81691046412069501      -0.10199114954854564        0.00000000    
  0.82186968139816308       -2.0607173008801678E-002   0.00000000    
  0.81356745759783566        5.6914730685506947E-002   0.00000000    
  0.79267938598416987       0.12838635653289054        0.00000000    
  0.76130829434859559       0.19413723191790441        0.00000000    
  0.71974814686304645       0.25323752863445098        0.00000000    
  0.67021322851796084       0.30599647910174504        0.00000000    
  0.61279603923460402       0.35235864146807666        0.00000000    
  0.54949270119858640       0.39244630522748614        0.00000000    
  0.48037351445850057       0.42669269417196004        0.00000000    
  0.40710822822608539       0.45500307643915888        0.00000000    
  0.32986183710573791       0.47802753944433291        0.00000000    
  0.24997052092616542       0.49547880991693266        0.00000000    
  0.16775985897973394       0.50805965938119790        0.00000000    
   8.4260730024752636E-002  0.51532454462275734        0.00000000    
   0.0000000000000000       0.51793677620792267        0.00000000    
   0.0000000000000000       0.60153450610096582        0.00000000    
  -8.2934695027261016E-002  0.59891873653956162        0.00000000    
 -0.16529266376571505       0.59031903315821621        0.00000000    
 -0.24622844724146487       0.57636229069448508        0.00000000    
 -0.32540468577538900       0.55620794222688141        0.00000000    
 -0.40166589955134885       0.53032649840457013        0.00000000    
 -0.47489041161966994       0.49785516855411993        0.00000000    
 -0.54356028715216576       0.45906884759480288        0.00000000    
 -0.60773524360056008       0.41321020560674071        0.00000000    
 -0.66548347507021355       0.36030599623999171        0.00000000    
 -0.71696767081612844       0.29994265291199729        0.00000000    
 -0.75983331679211397       0.23185330274103458        0.00000000    
 -0.79417202844534329       0.15637540772746902        0.00000000    
 -0.81735333230136731        7.2990322495116902E-002   0.00000000    
 -0.82910486326831923       -1.6633726155332162E-002   0.00000000    
 -0.82704394138462267      -0.11298937543289715        0.00000000    
 -0.81025249706123692      -0.21257352018949119        0.00000000    
 -0.77767250653868791      -0.31528263614982083        0.00000000    
 -0.72777827369130910      -0.41601750152459854        0.00000000    
 -0.66208895928519262      -0.51350592134311956        0.00000000    
 -0.57898879941362724      -0.60261826905460403        0.00000000    
 -0.48286171498671565      -0.68077249002328555        0.00000000    
 -0.37276931401728020      -0.74505475046782721        0.00000000    
 -0.25450772044106063      -0.79189362988997003        0.00000000    
 -0.12860517895313550      -0.82173942943079381        0.00000000    
   3.6131444751013545E-006 -0.83068282063535948        0.00000000    
  0.12861236656711739      -0.82173899858762323        0.00000000    
  0.25451482808749865      -0.79189277846549733        0.00000000    
  0.37277626670491892      -0.74505348933170579        0.00000000    
  0.48286847316024006      -0.68077085246407643        0.00000000    
  0.57899529797287175      -0.60261627723129374        0.00000000    
  0.66209516315723804      -0.51350362762106416        0.00000000    
  0.72778413666962305      -0.41601494118026544        0.00000000    
  0.77767800399862375      -0.31527987239466337        0.00000000    
  0.81025760802298319      -0.21257059375647189        0.00000000    
  0.82704865362827396      -0.11298634845121029        0.00000000    
  0.82910917740114765       -1.6630634835114618E-002   0.00000000    
  0.81735724789790576        7.2993428990220183E-002   0.00000000    
  0.79417556209447338       0.15637850196401207        0.00000000    
  0.75983647475125571       0.23185635389588005        0.00000000    
  0.71697047625419963       0.29994564406125196        0.00000000    
  0.66548593758040053       0.36030891362157513        0.00000000    
  0.60773738636411700       0.41321304299004363        0.00000000    
  0.54356212058358133       0.45907160411320291        0.00000000    
  0.47489195617488256       0.49785784513152986        0.00000000    
  0.40166716310420092       0.53032910418571422        0.00000000    
  0.32540568395922359       0.55621048289584352        0.00000000    
  0.24622918590282955       0.57636478207157626        0.00000000    
  0.16529315307776979       0.59032148429301101        0.00000000    
   8.2934938162163435E-002  0.59892116608613599        0.00000000    
   0.0000000000000000       0.60153692574516016        0.00000000    
   0.0000000000000000       0.68399314893128771        0.00000000    
  -8.1281432672714302E-002  0.68067726370859882        0.00000000    
 -0.16191473933104053       0.67155282360141910        0.00000000    
 -0.24151990610511045       0.65567049205731132        0.00000000    
 -0.31914608110270926       0.63370319569056932        0.00000000    
 -0.39466690325277548       0.60461432084426303        0.00000000    
 -0.46676945379371770       0.56889544823075011        0.00000000    
 -0.53557605839492850       0.52550608559152767        0.00000000    
 -0.59932774360704433       0.47470064606610107        0.00000000    
 -0.65837362461197091       0.41561070246580928        0.00000000    
 -0.71041427196660600       0.34816382286456565        0.00000000    
 -0.75592654683212868       0.27201108358966719        0.00000000    
 -0.79202949342102080       0.18666031337657871        0.00000000    
 -0.81904876905790813        9.2907021123356817E-002   0.00000000    
 -0.83374120666533713       -1.0105433941645689E-002   0.00000000    
 -0.83578138602029339      -0.11953739141161589        0.00000000    