 <VTKFile type="UnstructuredGrid" version="0.1" byte_order="BigEndian">
 <UnstructuredGrid>
 <Piece NumberOfPoints="        2601 " NumberOfCells="        2500 ">
 <PointData Scalars="scalars">
 <DataArray type="Float32" NumberOfComponents="3" Name="Velocity" Format="ascii">
   0.0000000000000000        0.0000000000000000        0.00000000    
  -5.4833912048274459E-002   0.0000000000000000        0.00000000    
 -0.10894439885034776        0.0000000000000000        0.00000000    
 -0.16164005939701742        0.0000000000000000        0.00000000    
 -0.21217977533335156        0.0000000000000000        0.00000000    
 -0.25991236852106503        0.0000000000000000        0.00000000    
 -0.30410437765461817        0.0000000000000000        0.00000000    
 -0.34415240671172620        0.0000000000000000        0.00000000    
 -0.37937057338065777        0.0000000000000000        0.00000000    
 -0.40921576375628488        0.0000000000000000        0.00000000    
 -0.43310512279850011        0.0000000000000000        0.00000000    
 -0.45057813568663563        0.0000000000000000        0.00000000    
 -0.46122258257576354        0.0000000000000000        0.00000000    
 -0.46469548364973862        0.0000000000000000        0.00000000    
 -0.46082583929092730        0.0000000000000000        0.00000000    
 -0.44943464333241573        0.0000000000000000        0.00000000    
 -0.43065075237629080        0.0000000000000000        0.00000000    
 -0.40451054299200268        0.0000000000000000        0.00000000    
 -0.37147164891964812        0.0000000000000000        0.00000000    
 -0.33183024050936821        0.0000000000000000        0.00000000    
 -0.28635711974217765        0.0000000000000000        0.00000000    
 -0.23563056395038132        0.0000000000000000        0.00000000    
 -0.18066912611879721        0.0000000000000000        0.00000000    
 -0.12231953957402696        0.0000000000000000        0.00000000    
  -6.1740981195898312E-002   0.0000000000000000        0.00000000    
   8.5598580162127333E-006   0.0000000000000000        0.00000000    
   6.1758098431298446E-002   0.0000000000000000        0.00000000    
  0.12233650550833981        0.0000000000000000        0.00000000    
  0.18068593543820100        0.0000000000000000        0.00000000    
  0.23564707250240263        0.0000000000000000        0.00000000    
  0.28637332127611226        0.0000000000000000        0.00000000    
  0.33184600024894906        0.0000000000000000        0.00000000    
  0.37148695997768139        0.0000000000000000        0.00000000    
  0.40452528380574704        0.0000000000000000        0.00000000    
  0.43066491551707864        0.0000000000000000        0.00000000    
  0.44944812394660433        0.0000000000000000        0.00000000    
  0.46083863137379139        0.0000000000000000        0.00000000    
  0.46470749977496117        0.0000000000000000        0.00000000    
  0.46123381846934597        0.0000000000000000        0.00000000    
  0.45058852256462228        0.0000000000000000        0.00000000    
  0.43311465823002693        0.0000000000000000        0.00000000    
  0.40922439615690065        0.0000000000000000        0.00000000    
  0.37937830218461310        0.0000000000000000        0.00000000    
  0.34415919466897565        0.0000000000000000        0.00000000    
  0.30411022576378016        0.0000000000000000        0.00000000    
  0.25991725205892907        0.0000000000000000        0.00000000    
  0.21218369610502272        0.0000000000000000        0.00000000    
  0.16164300239878904        0.0000000000000000        0.00000000    
  0.10894636544065818        0.0000000000000000        0.00000000    
   5.4834895108779459E-002   0.0000000000000000        0.00000000    
   0.0000000000000000        0.0000000000000000        0.00000000    
   0.0000000000000000        5.5059565232146168E-002   0.00000000    
  -5.4929433980070545E-002   5.4705241475852720E-002   0.00000000    
 -0.10915148008630131        5.3628752007589077E-002   0.00000000    
 -0.16193173350096790        5.1848622325456221E-002   0.00000000    
 -0.21259991416780899        4.9360734340270829E-002   0.00000000    
 -0.26041347049687458        4.6186874839885386E-002   0.00000000    
 -0.30474581080259350        4.2338933762344114E-002   0.00000000    
 -0.34487829277485105        3.7843035850926389E-002   0.00000000    
 -0.38023670217664796        3.2734998134908114E-002   0.00000000    
 -0.41017414155003118        2.7049088795198302E-002   0.00000000    
 -0.43418500347556793        2.0852588549410078E-002   0.00000000    
 -0.45175696159149475        1.4193837977434775E-002   0.00000000    
 -0.46248100917117185        7.1761111176056628E-003   0.00000000    
 -0.46605117695288556       -1.3158856446113514E-004   0.00000000    
 -0.46219614026760425       -7.5916397185100144E-003   0.00000000    
 -0.45088469984475310       -1.5109544849958620E-002   0.00000000    
 -0.43203389631270944       -2.2523698741758219E-002   0.00000000    
 -0.40593496053658562       -2.9713996426985183E-002   0.00000000    
 -0.37274422450861550       -3.6514184515244012E-002   0.00000000    
 -0.33308440218714103       -4.2785597853579625E-002   0.00000000    
 -0.28738806434301595       -4.8382413084514499E-002   0.00000000    
 -0.23656846569908221       -5.3162294300393181E-002   0.00000000    
 -0.18134177989467445       -5.7024382777639084E-002   0.00000000    
 -0.12282200936262455       -5.9843528138170732E-002   0.00000000    
  -6.1974808591061505E-002  -6.1580785107351176E-002   0.00000000    
   8.5510907408104581E-006  -6.2150669860604954E-002   0.00000000    
   6.1991835981084514E-002  -6.1580707835247411E-002   0.00000000    
  0.12283895747716018       -5.9843374833638621E-002   0.00000000    
  0.18135850158255784       -5.7024153040523468E-002   0.00000000    
  0.23658495579057637       -5.3161991673604282E-002   0.00000000    
  0.28740418271928347       -4.8382036977831507E-002   0.00000000    
  0.33310014247381603       -4.2785154076113496E-002   0.00000000    
  0.37275945794629162       -3.6513672761936608E-002   0.00000000    
  0.40594968032021861       -2.9713424281692352E-002   0.00000000    
  0.43204798888636314       -2.2523066003824112E-002   0.00000000    
  0.45089815837838965       -1.5108861020948225E-002   0.00000000    
  0.46220886868754729       -7.5909049021528280E-003   0.00000000    
  0.46606317032631511       -1.3081237628090762E-004   0.00000000    
  0.46249218975023543        7.1769279558330868E-003   0.00000000    
  0.45176732596586833        1.4194686359922087E-002   0.00000000    
  0.43419449180067138        2.0853467663098191E-002   0.00000000    
  0.41018275246463098        2.7049990123393625E-002   0.00000000    
  0.38024439225835932        3.2735921236744264E-002   0.00000000    
  0.34488506249983292        3.7843973953026036E-002   0.00000000    
  0.30475162978953141        4.2339886246887462E-002   0.00000000    
  0.26041834026890615        4.6187836142071115E-002   0.00000000    
  0.21260381528061972        4.9361704464031500E-002   0.00000000    
  0.16193466771099405        5.1849596874921883E-002   0.00000000    
  0.10915343669698055        5.3629731469477811E-002   0.00000000    
   5.4930413994563443E-002   5.4706222140506418E-002   0.00000000    
   0.0000000000000000        5.5060547643042690E-002   0.00000000    
   0.0000000000000000       0.11032320732058182        0.00000000    
  -5.5227810073729421E-002  0.10960024234990504        0.00000000    
 -0.10973561484104891       0.10746500081497545        0.00000000    
 -0.16283873219646045       0.10389714288140045        0.00000000    
 -0.21379428774172266        9.8937348290440458E-002   0.00000000    
 -0.26195892313497460        9.2589850486654676E-002   0.00000000    
 -0.30659081423070522        8.4901586903765716E-002   0.00000000    
 -0.34709296729138345        7.5916414525118533E-002   0.00000000    
 -0.38276396882910907        6.5692426523807232E-002   0.00000000    
 -0.41306297108523488        5.4329497401305001E-002   0.00000000    
 -0.43738544999164003        4.1906915336851321E-002   0.00000000    
 -0.45526657581021146        2.8593988815294721E-002   0.00000000    
 -0.46626967171472145        1.4504496543116911E-002   0.00000000    
 -0.47003957069980357       -1.1851537652448704E-004   0.00000000    
 -0.46638383495730962       -1.5114094458186305E-002   0.00000000    
 -0.45510429069169256       -3.0176684858514300E-002   0.00000000    
 -0.43631849511704607       -4.5091768869172280E-002   0.00000000    
 -0.41004034613205953       -5.9521622966920755E-002   0.00000000    
 -0.37673220892738274       -7.3204044013796626E-002   0.00000000    
 -0.33667050290687794       -8.5815880260231653E-002   0.00000000    
 -0.29064849458201875       -9.7069091167847052E-002   0.00000000    
 -0.23923430660894329      -0.10670801773895949        0.00000000    
 -0.18348257937432261      -0.11445568783223904        0.00000000    
 -0.12424492622456165      -0.12016826258773411        0.00000000    
  -6.2721354934581669E-002 -0.12362543883052908        0.00000000    
   8.4516019524387249E-006 -0.12481779859274916        0.00000000    
   6.2738256879128207E-002 -0.12362528550757280        0.00000000    
  0.12426167754240294      -0.12016795543182276        0.00000000    
  0.18349917695902088      -0.11445523178659865        0.00000000    
  0.23925060597122977      -0.10670741160178245        0.00000000    
  0.29066449136547728       -9.7068344277317573E-002   0.00000000    
  0.33668606184562461       -8.5814991332123239E-002   0.00000000    
  0.37674732412935286       -7.3203026825109332E-002   0.00000000    
  0.41005489601370670       -5.9520477282389343E-002   0.00000000    
  0.43633247362062338       -4.5090511082118985E-002   0.00000000    
  0.45511759268601831       -3.0175315529039383E-002   0.00000000    
  0.46639645462982854       -1.5112632706428977E-002   0.00000000    
  0.47005142205247769       -1.1696275701428459E-004   0.00000000    
  0.46628075065435043        1.4506122157839609E-002   0.00000000    
  0.45527681445512719        2.8595684921111541E-002   0.00000000    
  0.43739484660558769        4.1908664807903791E-002   0.00000000    
  0.41307147533544891        5.4331298146837015E-002   0.00000000    
  0.38277158044682996        6.5694263674178882E-002   0.00000000    
  0.34709965090833339        7.5918286936679999E-002   0.00000000    
  0.30659657132782764        8.4903482337236491E-002   0.00000000    
  0.26196372998154527        9.2591768305894093E-002   0.00000000    
  0.21379814625936699        9.8939278885832260E-002   0.00000000    
  0.16284162801721430       0.10389908655945213        0.00000000    
  0.10973754946838885       0.10746694994158862        0.00000000    
   5.5228777020425675E-002  0.10960219762721599        0.00000000    
   0.0000000000000000       0.11032516208056471        0.00000000    
   0.0000000000000000       0.16595586770754159        0.00000000    
  -5.5701704470939632E-002  0.16489843375387814        0.00000000    
 -0.11070701506462720       0.16168126190570609        0.00000000    
 -0.16428389572203234       0.15636221673741349        0.00000000    
 -0.21577765358513623       0.14892292444441682        0.00000000    
 -0.26443609742852020       0.13942868977634348        0.00000000    
 -0.30964815467056456       0.12790803162320527        0.00000000    
 -0.35067129876728292       0.11443660205572878        0.00000000    
 -0.38694146370310872        9.9114739848044198E-002   0.00000000    
 -0.41777372931930840        8.2039785586013325E-002   0.00000000    
 -0.44266180568821650        6.3408515216184638E-002   0.00000000    
 -0.46104531141042909        4.3358352382672619E-002   0.00000000    
 -0.47249946696316647        2.2198715404377522E-002   0.00000000    
 -0.47666952949926111        1.2855727396260237E-004   0.00000000    
 -0.47325235685561390       -2.2432746466952966E-002   0.00000000    
 -0.46218103397661203       -4.5207571991145917E-002   0.00000000    
 -0.44332903516781513       -6.7697349044474761E-002   0.00000000    
 -0.41697931980618835       -8.9542581063133758E-002   0.00000000    
 -0.38324290209938594      -0.11022631558407668        0.00000000    
 -0.34277043790719763      -0.12932645455570638        0.00000000    
 -0.29596117903598534      -0.14638846039764833        0.00000000    
 -0.24379021881171800      -0.16097247375119386        0.00000000    
 -0.18696587997236938      -0.17276597541550801        0.00000000    
 -0.12668366124155545      -0.18137652486873199        0.00000000    
  -6.3935151009352403E-002 -0.18668793630172031        0.00000000    
   8.3338944284674170E-006 -0.18842727095174400        0.00000000    
   6.3951743474523759E-002 -0.18668770639572979        0.00000000    
  0.12670017873707223      -0.18137606869941031        0.00000000    
  0.18698217444777945      -0.17276529162996249        0.00000000    
  0.24380628917932023      -0.16097157302354628        0.00000000    
  0.29597688425558133      -0.14638734037061463        0.00000000    
  0.34278577477599886      -0.12932513256837011        0.00000000    
  0.38325774151787029      -0.11022479026731180        0.00000000    
  0.41699365653945208       -8.9540875500846551E-002   0.00000000    
  0.44334275551496871       -6.7695463370717870E-002   0.00000000    
  0.46219413314139612       -4.5205532856405467E-002   0.00000000    
  0.47326473981086414       -2.2430555988778911E-002   0.00000000    
  0.47668119130259068        1.3087063922091296E-004   0.00000000    
  0.47251033211506555        2.2201149338223841E-002   0.00000000    
  0.46105537770436866        4.3360879322482955E-002   0.00000000    
  0.44267101580959445        6.3411132057216157E-002   0.00000000    
  0.41778208281664964        8.2042467949818593E-002   0.00000000    
  0.38694891986802787        9.9117485345539713E-002   0.00000000    
  0.35067785886549219       0.11443939018815878        0.00000000    
  0.30965379112439184       0.12791086150052997        0.00000000    
  0.26444081239201828       0.13943154489314413        0.00000000    
  0.21578142960082264       0.14892580501952121        0.00000000    
  0.16428673481999817       0.15636511005091383        0.00000000    
  0.11070890786805562       0.16168416888537243        0.00000000    
   5.5702652329881398E-002  0.16490134380382343        0.00000000    
   0.0000000000000000       0.16595878250108581        0.00000000    
   0.0000000000000000       0.22217339481462203        0.00000000    
  -5.6351110151176276E-002  0.22073499695323048        0.00000000    
 -0.11199369218864239       0.21649386692166950        0.00000000    
 -0.16626476591717393       0.20939884145591614        0.00000000    
 -0.21841717815386649       0.19953374487535738        0.00000000    
 -0.26783316011737679       0.18689356974238766        0.00000000    
 -0.31374635270136181       0.17156967558090924        0.00000000    
 -0.35558185438457407       0.15363487731597869        0.00000000    
 -0.39259123236573740       0.13319728026736780        0.00000000    
 -0.42424387877845254       0.11044342913458968        0.00000000    
 -0.44986817791961814        8.5518518276401570E-002   0.00000000    
 -0.46898957114495166        5.8754518429630850E-002   0.00000000    
 -0.48109400016601034        3.0362403115413626E-002   0.00000000    
 -0.48579146860263284        8.3366872412475232E-004   0.00000000    
 -0.48282009712462742       -2.9525134915902571E-002   0.00000000    
 -0.47192323087464094       -6.0082106535107559E-002   0.00000000    
 -0.45318041249041541       -9.0416366650273181E-002   0.00000000    
 -0.42653393897681452      -0.11981848820059963        0.00000000    
 -0.39245984561836034      -0.14775965641961833        0.00000000    
 -0.35116869146021529      -0.17355546975305131        0.00000000    
 -0.30352544409410315      -0.19661069001528295        0.00000000    
 -0.25006059580250395      -0.21638479181557627        0.00000000    
 -0.19194477922170680      -0.23229255259724865        0.00000000    
 -0.13003903018667093      -0.24403665564558513        0.00000000    
  -6.5673478455819265E-002 -0.25114060803137678        0.00000000    
   8.1208064753368855E-006 -0.25359842405610383        0.00000000    
   6.5689722657257588E-002 -0.25114030539012899        0.00000000    
  0.13005512616989384      -0.24403604902363316        0.00000000    
  0.19196073087486390      -0.23229165191402723        0.00000000    
  0.25007625716498688      -0.21638359358702933        0.00000000    
  0.30354081631201241      -0.19660921319636362        0.00000000    
  0.35118363846763767      -0.17355371099614939        0.00000000    
  0.39247436512289136      -0.14775764291893964        0.00000000    
  0.42654790889101307      -0.11981621854643126        0.00000000    
  0.45319382899750410       -9.0413875274845332E-002   0.00000000    
  0.47193598960844879       -6.0079394146079164E-002   0.00000000    
  0.48283219372569847       -2.9522239349359592E-002   0.00000000    
  0.48580281946194354        8.3674389506439536E-004   0.00000000    
  0.48110460243783154        3.0365620482931958E-002   0.00000000    
  0.46899936061837272        5.8757873592550539E-002   0.00000000    
  0.44987715386849136        8.5521976591906884E-002   0.00000000    
  0.42425199501886079       0.11044698635688860        0.00000000    
  0.39259849027024829       0.13320090657519551        0.00000000    
  0.35558822245132127       0.15363857054305186        0.00000000    
  0.31375183343682539       0.17157341133978818        0.00000000    
  0.26783773363577729       0.18689734768555566        0.00000000    
  0.21842084691736202       0.19953754632736076        0.00000000    
  0.16626751820965774       0.20940266728179915        0.00000000    
  0.11199553019633519       0.21649770196884230        0.00000000    
   5.6352028716245867E-002  0.22073884332333943        0.00000000    
   0.0000000000000000       0.22217723971257794        0.00000000    
   0.0000000000000000       0.27906607604237921        0.00000000    
  -5.7128817227651792E-002  0.27732345734593689        0.00000000    
 -0.11358583205264156       0.27200621750709042        0.00000000    
 -0.16864591833251161       0.26321886479371870        0.00000000    
 -0.22168904086214711       0.25091046984700882        0.00000000    
 -0.27194541167832109       0.23519041069323010        0.00000000    
 -0.31883992205261086       0.21608175013260100        0.00000000    
 -0.36158269306783375       0.19370228741110526        0.00000000    
 -0.39963645304466361       0.16819421928541839        0.00000000    
 -0.43223800505273041       0.13970189891000215        0.00000000    
 -0.45888687589142924       0.10853442791158631        0.00000000    
 -0.47892044004595269        7.4894774653952709E-002   0.00000000    
 -0.49188809391483035        3.9295437228691846E-002   0.00000000    
 -0.49732776409291285        2.0389795861989195E-003   0.00000000    
 -0.49487411096831879       -3.6154265073569961E-002   0.00000000    
 -0.48437838885060336       -7.4844360608119290E-002   0.00000000    
 -0.46562199832329670      -0.11315211835486227        0.00000000    
 -0.43886575089109658      -0.15048425548410335        0.00000000    
 -0.40411875912521322      -0.18591377318702620        0.00000000    
 -0.36209146185494845      -0.21871860442479998        0.00000000    
 -0.31310158520598963      -0.24807948007802619        0.00000000    
 -0.25826136327756472      -0.27321987357497612        0.00000000    
 -0.19824960953769621      -0.29358384325295622        0.00000000    
 -0.13444207632961158      -0.30845744990640417        0.00000000    
  -6.7874830558137783E-002 -0.31765141419787796        0.00000000    
   7.8875467079869200E-006 -0.32065073838359232        0.00000000    
   6.7890529239472641E-002 -0.31765103773306952        0.00000000    
  0.13445770943957111      -0.30845670331831160        0.00000000    
  0.19826502732455670      -0.29358272288266440        0.00000000    
  0.25827657334824189      -0.27321839702645906        0.00000000    
  0.31311644489396712      -0.24807764205167873        0.00000000    
  0.36210597406486367      -0.21871643418652384        0.00000000    
  0.40413279358216148      -0.18591126591166224        0.00000000    
  0.43887930630906080      -0.15048145097498683        0.00000000    
  0.46563496117277031      -0.11314901585850833        0.00000000    
  0.48439075621253763       -7.4841006078822769E-002   0.00000000    
  0.49488578995717197       -3.6150661141137269E-002   0.00000000    
  0.49733875152863999        2.0427836865590998E-003   0.00000000    
  0.49189831849759413        3.9299437107641146E-002   0.00000000    
  0.47892990080873382        7.4898923924290886E-002   0.00000000    
  0.45889552117162047       0.10853872112725965        0.00000000    
  0.43224583595688110       0.13970629531714079        0.00000000    
  0.39964343424797300       0.16819871444563489        0.00000000    
  0.36158882773477113       0.19370684816045536        0.00000000    
  0.31884518798334227       0.21608637443721493        0.00000000    
  0.27194981197287571       0.23519507294445391        0.00000000    
  0.22169256247407357       0.25091517042903588        0.00000000    
  0.16864856423992308       0.26322358366567011        0.00000000    
  0.11358759543628878       0.27201095631731237        0.00000000    
   5.7129699935254873E-002  0.27732820007223508        0.00000000    
   0.0000000000000000       0.27907082585738896        0.00000000    
   0.0000000000000000       0.33684120536531975        0.00000000    
  -5.8026439517631874E-002  0.33470473766779801        0.00000000    
 -0.11536722087650496       0.32842388616763712        0.00000000    
 -0.17140018644248567       0.31789540050934390        0.00000000    
 -0.22537434212538654       0.30325236457085353        0.00000000    
 -0.27672119299672121       0.28445288936045721        0.00000000    
 -0.32463567529520443       0.26162941533508555        0.00000000    
 -0.36858919973024856       0.23485206810424816        0.00000000    
 -0.40775410887345964       0.20426425744860754        0.00000000    
 -0.44162891033884433       0.17010936301863028        0.00000000    
 -0.46942359500732878       0.13257166720327138        0.00000000    
 -0.49065954014484142        9.2128191480254445E-002   0.00000000    
 -0.50467987387245317        4.9051153741429418E-002   0.00000000    
 -0.51104422576718478        4.0884297628707295E-003   0.00000000    
 -0.50935623595814483       -4.2344214790900961E-002   0.00000000    
 -0.49926003203619645       -8.9245194643580439E-002   0.00000000    
 -0.48075597554618243      -0.13601059034773386        0.00000000    
 -0.45365340373719609      -0.18148346275160482        0.00000000    
 -0.41844859204042589      -0.22486523067584477        0.00000000    
 -0.37521891867967672      -0.26502297970351457        0.00000000    
 -0.32496507169170008      -0.30101769170016268        0.00000000    
 -0.26812814561088938      -0.33195767385453606        0.00000000    
 -0.20610162954527889      -0.35688317751980231        0.00000000    
 -0.13974156070536853      -0.37532458281396486        0.00000000    
  -7.0623516610804044E-002 -0.38646843673962089        0.00000000    
   7.5495993354140055E-006 -0.39034636586971527        0.00000000    
   7.0638625557535195E-002 -0.38646799361070655        0.00000000    
  0.13975652651329207      -0.37532369417979955        0.00000000    
  0.20611646895543742      -0.35688185747455675        0.00000000    
  0.26814271041170606      -0.33195591465537116        0.00000000    
  0.32497937265224724      -0.30101552210125881        0.00000000    
  0.37523281714140444      -0.26502039106075498        0.00000000    
  0.41846209215739605      -0.22486226570693793        0.00000000    
  0.45366638271388637      -0.18148011575653106        0.00000000    
  0.48076843235036648      -0.13600691559597841        0.00000000    
  0.49927186414244601       -8.9241192183902945E-002   0.00000000    
  0.50936744112954468       -4.2339943480503177E-002   0.00000000    
  0.51105472424574128        4.0929647316086722E-003   0.00000000    
  0.50468966416557770        4.9055893790857147E-002   0.00000000    
  0.49066856477004128        9.2133130068451891E-002   0.00000000    
  0.46943185506998802       0.13257675114671502        0.00000000    
  0.44163636703069992       0.17011458644532002        0.00000000    
  0.40776076528298544       0.20426957557297387        0.00000000    
  0.36859503153647244       0.23485747702963675        0.00000000    
  0.32464068660177609       0.26163488070007240        0.00000000    
  0.27672537009518194       0.28445841039613945        0.00000000    
  0.22537768899401767       0.30325791528144908        0.00000000    
  0.17140269577577349       0.31790098249314952        0.00000000    
  0.11536889549122589       0.32842947910891473        0.00000000    
   5.8027276279087762E-002  0.33471034479292605        0.00000000    
   0.0000000000000000       0.33684681025113955        0.00000000    
   0.0000000000000000       0.39546980826883071        0.00000000    
  -5.8972148311218490E-002  0.39307581428625588        0.00000000    
 -0.11731501044688257       0.38573754459136272        0.00000000    
 -0.17431889814449997       0.37361968669382079        0.00000000    
 -0.22942336689284837       0.35660779373246709        0.00000000    
 -0.28183677359818632       0.33485880828101472        0.00000000    
 -0.33104946400604196       0.30835175893289346        0.00000000    
 -0.37620257185313488       0.27723744597964084        0.00000000    
 -0.41681551468551864       0.24165781981878359        0.00000000    
 -0.45200328848846821       0.20177946334982408        0.00000000    
 -0.48129408919669903       0.15798813858636696        0.00000000    
 -0.50385678265930611       0.11051144398443248        0.00000000    
 -0.51921996772667234        6.0052504120060773E-002   0.00000000    
 -0.52673396724830501        6.9665136433536574E-003   0.00000000    
 -0.52594769648638862       -4.7695477618461060E-002   0.00000000    
 -0.51655927620309317      -0.10337747578978559        0.00000000    
 -0.49820188794327835      -0.15873867486868734        0.00000000    
 -0.47108529719479697      -0.21297346315837665        0.00000000    
 -0.43503664046918600      -0.26462762205822765        0.00000000    
 -0.39086663986812920      -0.31265918703430712        0.00000000    
 -0.33872909804131202      -0.35577179871747294        0.00000000    
 -0.27998226076396721      -0.39278625688680885        0.00000000    
 -0.21521934726483491      -0.42284295127494409        0.00000000    
 -0.14613796972540163      -0.44480518343492370        0.00000000    
  -7.3815855983996995E-002 -0.45842692221817177        0.00000000    
   7.1875394707412720E-006 -0.46284091866082072        0.00000000    
   7.3830153959268993E-002 -0.45842641173370635        0.00000000    
  0.14615221953199131      -0.44480417084868007        0.00000000    
  0.21523339604286229      -0.42284142775542322        0.00000000    
  0.27999613078719127      -0.39278424779755905        0.00000000    
  0.33874264363359124      -0.35576929073732810        0.00000000    
  0.39087987357788762      -0.31265622239116214        0.00000000    
  0.43504942920885686      -0.26462418977466617        0.00000000    
  0.47109764457971753      -0.21296962098257674        0.00000000    
  0.49821368108415176      -0.15873441888083042        0.00000000    
  0.51657051409542210      -0.10337287461932382        0.00000000    
  0.52595828992634452       -4.7690533631278523E-002   0.00000000    
  0.52674391516471841        6.9717281521483945E-003   0.00000000    
  0.51922920580103249        6.0057982657326862E-002   0.00000000    
  0.50386531100673482       0.11051711948014470        0.00000000    
  0.48130186498437727       0.15799400274504985        0.00000000    
  0.45201031517009305       0.20178545903866163        0.00000000    
  0.41682176643562741       0.24166394089535498        0.00000000    
  0.37620805346174152       0.27724364669818413        0.00000000    
  0.33105416161845908       0.30835803700110792        0.00000000    
  0.28184069214770280       0.33486512988505557        0.00000000    
  0.22942649950938226       0.35661416003808177        0.00000000    
  0.17432124879993585       0.37362607257963637        0.00000000    
  0.11731657625429266       0.38574395319780491        0.00000000    
   5.8972931682035254E-002  0.39308222603666998        0.00000000    
   0.0000000000000000       0.39547622866222781        0.00000000    
   0.0000000000000000       0.45513766322518595        0.00000000    
  -5.9953109972883598E-002  0.45233424820180346        0.00000000    
 -0.11925926996846078       0.44412916329366720        0.00000000    
 -0.17736134129111536       0.43033505718473353        0.00000000    
 -0.23350979311787656       0.41114637368299173        0.00000000    
 -0.28721702270701532       0.38644189387750161        0.00000000    
 -0.33762959967333289       0.35639496944237414        0.00000000    
 -0.38430274301977402       0.32102151451034000        0.00000000    
 -0.42629832252173655       0.28048330072166128        0.00000000    
 -0.46318252099528784       0.23502698071296843        0.00000000    
 -0.49398761649152939       0.18483754243118619        0.00000000    
 -0.51825994699085109       0.13049808783800024        0.00000000    
 -0.53511239471096683        7.2282515563417610E-002   0.00000000    
 -0.54405777378503117        1.1196901968016060E-002   0.00000000    
 -0.54446576570381955       -5.2303125060218773E-002   0.00000000    
 -0.53584457586416434      -0.11677842005125132        0.00000000    