 <VTKFile type="UnstructuredGrid" version="0.1" byte_order="BigEndian">
 <UnstructuredGrid>
 <Piece NumberOfPoints="        2601 " NumberOfCells="        2500 ">
 <PointData Scalars="scalars">
 <DataArray type="Float32" NumberOfComponents="3" Name="Velocity" Format="ascii">
   0.0000000000000000        0.0000000000000000        0.00000000    
  -9.7177213002768395E-002   0.0000000000000000        0.00000000    
 -0.19344081676751415        0.0000000000000000        0.00000000    
 -0.28808915506790095        0.0000000000000000        0.00000000    
 -0.37994661633957971        0.0000000000000000        0.00000000    
 -0.46845695730405068        0.0000000000000000        0.00000000    
 -0.55215613309985800        0.0000000000000000        0.00000000    
 -0.63055116215669194        0.0000000000000000        0.00000000    
 -0.70190551697804360        0.0000000000000000        0.00000000    
 -0.76569377451441545        0.0000000000000000        0.00000000    
 -0.81999893180049077        0.0000000000000000        0.00000000    
 -0.86416807017170083        0.0000000000000000        0.00000000    
 -0.89631574612740683        0.0000000000000000        0.00000000    
 -0.91560521971225683        0.0000000000000000        0.00000000    
 -0.92054394982248766        0.0000000000000000        0.00000000    
 -0.91015478079423651        0.0000000000000000        0.00000000    
 -0.88381119608866776        0.0000000000000000        0.00000000    
 -0.84059162688115208        0.0000000000000000        0.00000000    
 -0.78116738269425312        0.0000000000000000        0.00000000    
 -0.70501345235544144        0.0000000000000000        0.00000000    
 -0.61425215750766760        0.0000000000000000        0.00000000    
 -0.50914805715163713        0.0000000000000000        0.00000000    
 -0.39297933544458435        0.0000000000000000        0.00000000    
 -0.26710234071786071        0.0000000000000000        0.00000000    
 -0.13526847777547782        0.0000000000000000        0.00000000    
   3.6316741405186637E-009   0.0000000000000000        0.00000000    
  0.13526851036940879        0.0000000000000000        0.00000000    
  0.26710235426449158        0.0000000000000000        0.00000000    
  0.39297937727504745        0.0000000000000000        0.00000000    
  0.50914808255322663        0.0000000000000000        0.00000000    
  0.61425220503184053        0.0000000000000000        0.00000000    
  0.70501348037963441        0.0000000000000000        0.00000000    
  0.78116741957608760        0.0000000000000000        0.00000000    
  0.84059163556807626        0.0000000000000000        0.00000000    
  0.88381119730544422        0.0000000000000000        0.00000000    
  0.91015474846592193        0.0000000000000000        0.00000000    
  0.92054389870119291        0.0000000000000000        0.00000000    
  0.91560513314579328        0.0000000000000000        0.00000000    
  0.89631563777062817        0.0000000000000000        0.00000000    
  0.86416793444998274        0.0000000000000000        0.00000000    
  0.81999878016978589        0.0000000000000000        0.00000000    
  0.76569360729507985        0.0000000000000000        0.00000000    
  0.70190534431410634        0.0000000000000000        0.00000000    
  0.63055098981354518        0.0000000000000000        0.00000000    
  0.55215597020241869        0.0000000000000000        0.00000000    
  0.46845680991123972        0.0000000000000000        0.00000000    
  0.37994649079875442        0.0000000000000000        0.00000000    
  0.28808905613605312        0.0000000000000000        0.00000000    
  0.19344074872075082        0.0000000000000000        0.00000000    
   9.7177178300384942E-002   0.0000000000000000        0.00000000    
   0.0000000000000000        0.0000000000000000        0.00000000    
   0.0000000000000000        9.7278703271464734E-002   0.00000000    
  -9.6982209832124674E-002   9.6882194366009283E-002   0.00000000    
 -0.19317134107159603        9.5572015194797133E-002   0.00000000    
 -0.28753312310690654        9.3439579240724754E-002   0.00000000    
 -0.37945765137233639        9.0343883658840760E-002   0.00000000    
 -0.46762924581003357        8.6339524191175215E-002   0.00000000    
 -0.55154807333215938        8.1279950349536612E-002   0.00000000    
 -0.62960654928025950        7.5175024506142246E-002   0.00000000    
 -0.70132611788684329        6.7900367072330048E-002   0.00000000    
 -0.76485236807672430        5.9415606982820370E-002   0.00000000    
 -0.81962831592938945        4.9666962341198828E-002   0.00000000    
 -0.86369462405309105        3.8569946093432478E-002   0.00000000    
 -0.89632816864057396        2.6212733867756802E-002   0.00000000    
 -0.91574874763815706        1.2498775522644978E-002   0.00000000    
 -0.92104251925225677       -2.2648197757132666E-003   0.00000000    
 -0.91104500627138751       -1.8120411072482280E-002   0.00000000    
 -0.88475776858116106       -3.4508963038163414E-002   0.00000000    
 -0.84213266353055005       -5.1334265865611371E-002   0.00000000    
 -0.78235978476947432       -6.7861414467799863E-002   0.00000000    
 -0.70685478062942508       -8.3796080143549223E-002   0.00000000    
 -0.61538861330559658       -9.8429944510947040E-002   0.00000000    
 -0.51078471543695181      -0.11127661846331419        0.00000000    
 -0.39377779067159374      -0.12189759448052609        0.00000000    
 -0.26805995925682252      -0.12969579963277034        0.00000000    
 -0.13555315297199352      -0.13464343847627191        0.00000000    
  -3.0667810741811445E-009 -0.13617676224352013        0.00000000    
  0.13555312481084697      -0.13464344177926685        0.00000000    
  0.26805995989844039      -0.12969580608521419        0.00000000    
  0.39377777558464039      -0.12189760058331131        0.00000000    
  0.51078472880240744      -0.11127662438401324        0.00000000    
  0.61538861126072586       -9.8429945302444713E-002   0.00000000    
  0.70685479671883833       -8.3796077986276252E-002   0.00000000    
  0.78235977872991191       -6.7861403353652081E-002   0.00000000    
  0.84213265948098526       -5.1334250774742018E-002   0.00000000    
  0.88475773460632345       -3.4508940733500332E-002   0.00000000    
  0.91104495882703651       -1.8120386362415350E-002   0.00000000    
  0.92104243740693137       -2.2647912916927034E-003   0.00000000    
  0.91574864583630411        1.2498802440465326E-002   0.00000000    
  0.89632803614408241        2.6212759435042018E-002   0.00000000    
  0.86369447275933342        3.8569966688512099E-002   0.00000000    
  0.81962814390209027        4.9666978388812212E-002   0.00000000    
  0.76485218653605735        5.9415616037377543E-002   0.00000000    
  0.70132593061699222        6.7900369191734103E-002   0.00000000    
  0.62960636567703143        7.5175018399504981E-002   0.00000000    
  0.55154789971496210        8.1279937024619206E-002   0.00000000    
  0.46762908995121827        8.6339504253268778E-002   0.00000000    
  0.37945751891794810        9.0343858340522790E-002   0.00000000    
  0.28753301927346797        9.3439549329307245E-002   0.00000000    
  0.19317126945718938        9.5571982002289682E-002   0.00000000    
   9.6982173317564327E-002   9.6882159114482821E-002   0.00000000    
   0.0000000000000000        9.7278667306240144E-002   0.00000000    
   0.0000000000000000       0.19427563401329567        0.00000000    
  -9.6505559830404014E-002  0.19337444644383686        0.00000000    
 -0.19212212070977389       0.19088686818258688        0.00000000    
 -0.28618092081956470       0.18654672081761067        0.00000000    
 -0.37752327780258810       0.18050503911663621        0.00000000    
 -0.46563825183537122       0.17246634793919458        0.00000000    
 -0.54906636382422058       0.16250147578517146        0.00000000    
 -0.62737742162400523       0.15032444092833275        0.00000000    
 -0.69881553914261518       0.13591004338507165        0.00000000    
 -0.76293642455784949       0.11905447084051014        0.00000000    
 -0.81776171489881233        9.9630739299924970E-002   0.00000000    
 -0.86272604940163689        7.7638211921167433E-002   0.00000000    
 -0.89582412770613540        5.2877488717565618E-002   0.00000000    
 -0.91628154448928778        2.5713411470702448E-002   0.00000000    
 -0.92243502355969875       -4.0308127807965896E-003   0.00000000    
 -0.91330055668649701       -3.5485008564335917E-002   0.00000000    
 -0.88808994308755018       -6.8640830505247150E-002   0.00000000    
 -0.84577713353671202      -0.10213892947903624        0.00000000    
 -0.78698704920659002      -0.13561833350536334        0.00000000    
 -0.71100660337382471      -0.16752323311059542        0.00000000    
 -0.62010500402014490      -0.19706918307048976        0.00000000    
 -0.51432982078301703      -0.22301508777449841        0.00000000    
 -0.39725757201772305      -0.24423692764217969        0.00000000    
 -0.27007468790340033      -0.26025581214683480        0.00000000    
 -0.13682799003720689      -0.26983556145223964        0.00000000    
  -7.1680128367750185E-008 -0.27336433927855663        0.00000000    
  0.13682787420390818      -0.26983557025459004        0.00000000    
  0.27007455589582330      -0.26025582572839795        0.00000000    
  0.39725747463980687      -0.24423694551688888        0.00000000    
  0.51432971360604796      -0.22301510057659163        0.00000000    
  0.62010492729162958      -0.19706919201864745        0.00000000    
  0.71100651359074818      -0.16752322787631660        0.00000000    
  0.78698697546207519      -0.13561831937771016        0.00000000    
  0.84577703878868626      -0.10213889838806232        0.00000000    
  0.88808984585834638       -6.8640791794118222E-002   0.00000000    
  0.91330042996835004       -3.5484957302157942E-002   0.00000000    
  0.92243488218469472       -4.0307617909161536E-003   0.00000000    
  0.91628137397176557        2.5713464981850245E-002   0.00000000    
  0.89582394013717404        5.2877535437756501E-002   0.00000000    
  0.86272583917511447        7.7638252818326356E-002   0.00000000    
  0.81776149343047844        9.9630767020979866E-002   0.00000000    
  0.76293619459821505       0.11905448622646535        0.00000000    
  0.69881531118987350       0.13591004289554642        0.00000000    
  0.62737720142907294       0.15032442600637250        0.00000000    
  0.54906615959910265       0.16250144531991645        0.00000000    
  0.46563806995259754       0.17246630504108612        0.00000000    
  0.37752312457601989       0.18050498469807669        0.00000000    
  0.28618080129064799       0.18654665768802550        0.00000000    
  0.19212203867815697       0.19088679849210743        0.00000000    
   9.6505518067429588E-002  0.19337437232198651        0.00000000    
   0.0000000000000000       0.19427555864105328        0.00000000    
   0.0000000000000000       0.29046536299006526        0.00000000    
  -9.5612043733885071E-002  0.28930367280692787        0.00000000    
 -0.19048624419367238       0.28544975465243044        0.00000000    
 -0.28362975916208638       0.27918750053509944        0.00000000    
 -0.37450714082274245       0.27008534830830017        0.00000000    
 -0.46182690955676869       0.25832213100245366        0.00000000    
 -0.54519361760929030       0.24344186085391106        0.00000000    
 -0.62299103784196941       0.22549388079606605        0.00000000    
 -0.69488436682683474       0.20407339499663266        0.00000000    
 -0.75894719404378530       0.17907617521643518        0.00000000    
 -0.81480020085324123       0.15028867302404814        0.00000000    
 -0.86030811011216701       0.11745386082602839        0.00000000    
 -0.89491923589122468        8.0772379983091266E-002   0.00000000    
 -0.91655112274404349        3.9909157368477007E-002   0.00000000    
 -0.92437249238068242       -4.2503794304322327E-003   0.00000000    
 -0.91684712355462872       -5.1923950076323250E-002   0.00000000    
 -0.89288005530849346      -0.10137824625864508        0.00000000    
 -0.85216528758844656      -0.15242776972848823        0.00000000    
 -0.79359028821775912      -0.20269325835237081        0.00000000    
 -0.71866038476666982      -0.25135734227650081        0.00000000    
 -0.62670954892893249      -0.29608619595920443        0.00000000    
 -0.52106454426112159      -0.33541695257591331        0.00000000    
 -0.40202646241511147      -0.36794408469435813        0.00000000    
 -0.27396770759349215      -0.39178898729276412        0.00000000    
 -0.13854974034906734      -0.40696574540787644        0.00000000    
  -1.5427347283077226E-007 -0.41161035447023320        0.00000000    
  0.13854941049778113      -0.40696576043285609        0.00000000    
  0.27396741601142333      -0.39178901674659627        0.00000000    
  0.40202616568195554      -0.36794411617535439        0.00000000    
  0.52106429163820289      -0.33541698608283843        0.00000000    
  0.62670929493806682      -0.29608621328298823        0.00000000    
  0.71866016480367134      -0.25135734963980977        0.00000000    
  0.79359006009459032      -0.20269323950544255        0.00000000    
  0.85216507357407534      -0.15242773646196037        0.00000000    
  0.89287982233979324      -0.10137818828745708        0.00000000    
  0.91684688734905995       -5.1923885348257877E-002   0.00000000    
  0.92437223275431302       -4.2503038286502617E-003   0.00000000    
  0.91655085102645895        3.9909227501608295E-002   0.00000000    
  0.89491894393671956        8.0772447369809305E-002   0.00000000    
  0.86030780947967722       0.11745391239237109        0.00000000    
  0.81479989220612858       0.15028870933251989        0.00000000    
  0.75894688780567776       0.17907618809744413        0.00000000    
  0.69488406885227305       0.20407338674179221        0.00000000    
  0.62299075735246157       0.22549384839674011        0.00000000    
  0.54519336142499608       0.24344180759117914        0.00000000    
  0.46182668463946652       0.25832205729267405        0.00000000    
  0.37450695364656023       0.27008525830427643        0.00000000    
  0.28362961411052950       0.27918739716889457        0.00000000    
  0.19048614543520032       0.28544964140837886        0.00000000    
   9.5611993658843972E-002  0.28930355328676971        0.00000000    
   0.0000000000000000       0.29046524117830902        0.00000000    
   0.0000000000000000       0.38576473843938958        0.00000000    
  -9.4392213170902864E-002  0.38400984484774342        0.00000000    
 -0.18796493157922237       0.37919179189275037        0.00000000    
 -0.28013987494194931       0.37076521143897451        0.00000000    
 -0.36980936479037652       0.35905579820398587        0.00000000    
 -0.45658752126324714       0.34345089440759669        0.00000000    
 -0.53903447510078850       0.32412804654190147        0.00000000    
 -0.61689900910762840       0.30047093477089981        0.00000000    
 -0.68837970410673632       0.27247164913632316        0.00000000    
 -0.75327769882658546       0.23964002481825877        0.00000000    
 -0.80944617684402653       0.20174758830724923        0.00000000    
 -0.85661054862098562       0.15866850384726436        0.00000000    
 -0.89240813972971333       0.10996772885209700        0.00000000    
 -0.91631094245451283        5.6249769978797867E-002   0.00000000    
 -0.92610296919977142       -2.9763265960248077E-003   0.00000000    
 -0.92084610392570354       -6.5978971122466715E-002   0.00000000    
 -0.89917793188101824      -0.13295720300432215        0.00000000    
 -0.85978815008408072      -0.20095210294746771        0.00000000    
 -0.80309336886809524      -0.26943744991737184        0.00000000    
 -0.72778521169392429      -0.33484995796082967        0.00000000    
 -0.63662763532956856      -0.39570074278702377        0.00000000    
 -0.52893252324039941      -0.44914127453706565        0.00000000    
 -0.40934325190883752      -0.49284587095021831        0.00000000    
 -0.27841214766728606      -0.52587581612566281        0.00000000    
 -0.14121466228941287      -0.54549312692530527        0.00000000    
  -3.0392790432515177E-007 -0.55284567543277086        0.00000000    
  0.14121408939602220      -0.54549315560832823        0.00000000    
  0.27841156872144002      -0.52587586413821807        0.00000000    
  0.40934272906701918      -0.49284593482537065        0.00000000    
  0.52893201129129119      -0.44914133065275658        0.00000000    
  0.63662718006700858      -0.39570079282055515        0.00000000    
  0.72778476648422463      -0.33484997669505973        0.00000000    
  0.80309296100084204      -0.26943744888168830        0.00000000    
  0.85978773936010122      -0.20095206312167532        0.00000000    
  0.89917753484489693      -0.13295714632579669        0.00000000    
  0.92084569345303380       -6.5978888428202334E-002   0.00000000    
  0.92610255681942488       -2.9762436318161692E-003   0.00000000    
  0.91631051625215365        5.6249858662872992E-002   0.00000000    
  0.89240771003940211       0.10996780141290594        0.00000000    
  0.85661011517144126       0.15866856267689558        0.00000000    
  0.80944574982582052       0.20174761893589002        0.00000000    
  0.75327728389499637       0.23964002888365163        0.00000000    
  0.68837931046154255       0.27247162014733883        0.00000000    
  0.61689864456698495       0.30047087651629639        0.00000000    
  0.53903414704727581       0.32412795834229030        0.00000000    
  0.45658723734569251       0.34345078023193543        0.00000000    
  0.36980912978601627       0.35905566201172084        0.00000000    
  0.28013969442676956       0.37076505764739909        0.00000000    
  0.18796480897058448       0.37919162487463665        0.00000000    
   9.4392151466453134E-002  0.38400966951422288        0.00000000    
   0.0000000000000000       0.38576456066169995        0.00000000    
   0.0000000000000000       0.47935119641762802        0.00000000    
  -9.2684663582115898E-002  0.47750149331787145        0.00000000    
 -0.18472937951613108       0.47131880714166696        0.00000000    
 -0.27521985814249217       0.46130484725121246        0.00000000    
 -0.36374975372824159       0.44671677594217896        0.00000000    
 -0.44908152008046032       0.42790106698709413        0.00000000    
 -0.53100513209611300       0.40404966571896850        0.00000000    
 -0.60790521848309176       0.37531516091520822        0.00000000    
 -0.67971989112457776       0.34092401335601324        0.00000000    
 -0.74440976867708974       0.30077675420626454        0.00000000    
 -0.80197167874203723       0.25434246557163598        0.00000000    
 -0.84994687786647805       0.20121441415891841        0.00000000    
 -0.88821390739621442       0.14148765264665106        0.00000000    
 -0.91406124339509909        7.4481195848552312E-002   0.00000000    
 -0.92696850556958843        1.4927439651356400E-003   0.00000000    
 -0.92451648124245311       -7.8155727039089518E-002   0.00000000    
 -0.90553975038845524      -0.16142414906479594        0.00000000    
 -0.86900805585779817      -0.24840543626999567        0.00000000    
 -0.81321176303972964      -0.33447399652522042        0.00000000    
 -0.73978350574960328      -0.41854863609007736        0.00000000    
 -0.64706352683338830      -0.49587843227945166        0.00000000    
 -0.53965808674650295      -0.56406295367386627        0.00000000    
 -0.41677638162430397      -0.62039398594854678        0.00000000    
 -0.28455319285277592      -0.66148081479764564        0.00000000    
 -0.14384243271375330      -0.68779519495796770        0.00000000    
  -4.6916378958616891E-007 -0.69559875158965789        0.00000000    
  0.14384147567596392      -0.68779523989322688        0.00000000    
  0.28455229643483343      -0.66148090112529867        0.00000000    
  0.41677550459904605      -0.62039408700531107        0.00000000    
  0.53965729071730684      -0.56406306449663590        0.00000000    
  0.64706276242973271      -0.49587851591795562        0.00000000    
  0.73978281001157298      -0.41854869993771410        0.00000000    
  0.81321108763304950      -0.33447400804985389        0.00000000    
  0.86900741909491486      -0.24840541967082852        0.00000000    
  0.90553911712437185      -0.16142408634619768        0.00000000    
  0.92451586234575356       -7.8155651315587091E-002   0.00000000    
  0.92696788349084247        1.4928389899626928E-003   0.00000000    
  0.91406062667320731        7.4481280937328323E-002   0.00000000    
  0.88821329406694849       0.14148772889824052        0.00000000    
  0.84994627758809294       0.20121446000629378        0.00000000    
  0.80197109814402578       0.25434248307099211        0.00000000    
  0.74440921621810963       0.30077673117547543        0.00000000    
  0.67971937556444306       0.34092395327815256        0.00000000    
  0.60790474699652230       0.37531506057155156        0.00000000    
  0.53100471394940385       0.40404952978160896        0.00000000    
  0.44908116019814831       0.42790089814901755        0.00000000    
  0.36374945924829666       0.44671658009696108        0.00000000    
  0.27521963290385837       0.46130462938229366        0.00000000    
  0.18472922776062536       0.47131857281142236        0.00000000    
   9.2684586899652269E-002  0.47750124931944776        0.00000000    
   0.0000000000000000       0.47935094891812541        0.00000000    
   0.0000000000000000       0.57131861707877152        0.00000000    
  -9.0576542839640409E-002  0.56879644803449347        0.00000000    
 -0.18043547107121088       0.56192866541763276        0.00000000    
 -0.26912220053383001       0.54987336521665164        0.00000000    
 -0.35561439608799578       0.53317151687441278        0.00000000    
 -0.43969595092807673       0.51086081365276681        0.00000000    
 -0.51997799193144956       0.48329673779142029        0.00000000    
 -0.59646657047961049       0.44945791746853297        0.00000000    
 -0.66732583008036683       0.40945635170243966        0.00000000    
 -0.73275182670157391       0.36236145000851577        0.00000000    
 -0.79037731634622588       0.30794632797413762        0.00000000    
 -0.84048361853904774       0.24569320830547053        0.00000000    
 -0.88014506476435483       0.17493848739796880        0.00000000    
 -0.90945308627048893        9.6186868071177475E-002   0.00000000    
 -0.92515420879559496        8.3966029964882023E-003   0.00000000    
 -0.92667057192893398       -8.5994104478586950E-002   0.00000000    
 -0.91133069664795641      -0.18790123889352672        0.00000000    
 -0.87751084381970590      -0.29227875834019051        0.00000000    
 -0.82493541375519230      -0.39897126672767663        0.00000000    
 -0.75121553621196835      -0.50119837269450052        0.00000000    
 -0.66011788629256662      -0.59704520170440945        0.00000000    
 -0.54942591877383995      -0.68099247058934864        0.00000000    
 -0.42630938294640719      -0.74946159325213080        0.00000000    
 -0.28977386798189819      -0.80117079516316136        0.00000000    
 -0.14722348563757162      -0.83136524366782572        0.00000000    
  -7.1213863593571856E-007 -0.84309232667817824        0.00000000    
  0.14722211070330329      -0.83136531923582646        0.00000000    
  0.28977250820630185      -0.80117092663661349        0.00000000    
  0.42630812304903687      -0.74946176843392742        0.00000000    
  0.54942471227216616      -0.68099264167883344        0.00000000    
  0.66011678753661152      -0.59704536444735379        0.00000000    
  0.75121448940185831      -0.50119847804911632        0.00000000    
  0.82493444300644792      -0.39897133313792055        0.00000000    
  0.87750990231212811      -0.29227875474028703        0.00000000    
  0.91132979323946417      -0.18790120477340463        0.00000000    
  0.92666968150874762       -8.5994027512175331E-002   0.00000000    
  0.92515333739149141        8.3966809445308842E-003   0.00000000    
  0.90945222963366612        9.6186950112752065E-002   0.00000000    
  0.88014423066664771       0.17493854076519066        0.00000000    
  0.84048281388784440       0.24569323453999795        0.00000000    
  0.79037654877175623       0.30794630832941572        0.00000000    
  0.73275110769245910       0.36236138741760016        0.00000000    
  0.66732516614469428       0.40945623921260593        0.00000000    
  0.59646597245718858       0.44945775955022266        0.00000000    
  0.51997746435024328       0.48329653564783115        0.00000000    
  0.43969550242991379       0.51086057367367421        0.00000000    
  0.35561403009062287       0.53317124426724971        0.00000000    
  0.26912192301472249       0.54987306639030054        0.00000000    
  0.18043528396036076       0.56192834815363291        0.00000000    
   9.0576448901616230E-002  0.56879611872415570        0.00000000    
   0.0000000000000000       0.57131828427089337        0.00000000    
   0.0000000000000000       0.66050781979598705        0.00000000    
  -8.7893413644340918E-002  0.65807831035463427        0.00000000    
 -0.17526376254211642       0.64987718842544251        0.00000000    
 -0.26130426359287284       0.63665318070943777        0.00000000    
 -0.34575221874952949       0.61733295901058072        0.00000000    
 -0.42746304126933315       0.59249285535562890        0.00000000    
 -0.50643739325045167       0.56092219375772168        0.00000000    
 -0.58110339539808620       0.52298814617512068        0.00000000    
 -0.65174323989264649       0.47742632854227207        0.00000000    
 -0.71622863308829277       0.42430396337558546        0.00000000    
 -0.77511912353996970       0.36252089185872016        0.00000000    
 -0.82557249477724493       0.29167941343157533        0.00000000    
 -0.86829398995610874       0.21133631541012732        0.00000000    
 -0.89963330128326890       0.12043746226776464        0.00000000    
 -0.91997251380319267        2.0187429007623357E-002   0.00000000    
 -0.92521637069752460       -9.1023628806338019E-002   0.00000000    
 -0.91456808136513701      -0.20885880163198195        0.00000000    
 -0.88517290064103038      -0.33453515653314936        0.00000000    
 -0.83454507969097413      -0.45991705028178365        0.00000000    
 -0.76416446837297769      -0.58435201485462585        0.00000000    
 -0.67057128623458906      -0.69858133052626847        0.00000000    
 -0.56118993056859445      -0.79952861014828469        0.00000000    
 -0.43294622601057881      -0.88228464007129037        0.00000000    
 -0.29607360888185064      -0.94175483120850001        0.00000000    
 -0.14924536369666869      -0.98015878602248474        0.00000000    
  -9.7505889463101473E-007 -0.99076489912175758        0.00000000    
  0.14924340131805006      -0.98015889867270711        0.00000000    
  0.29607174983187240      -0.94175504408696575        0.00000000    
  0.43294443421486112      -0.88228490098057499        0.00000000    
  0.56118828846462432      -0.79952889859762677        0.00000000    
  0.67056973516275642      -0.69858157468718696        0.00000000    
  0.76416304599155960      -0.58435221942740323        0.00000000    
  0.83454372436689628      -0.45991716059250343        0.00000000    
  0.88517162096910273      -0.33453521392594149        0.00000000    
  0.91456683908786029      -0.20885878201279134        0.00000000    
  0.92521516742856025       -9.1023589335450544E-002   0.00000000    
  0.91997134080022658        2.0187495169251068E-002   0.00000000    
  0.89963216267274115       0.12043750693621029        0.00000000    
  0.86829289491504735       0.21133634004206159        0.00000000    
  0.82557144876004895       0.29167938993120479        0.00000000    
  0.77511814066355700       0.36252082173155986        0.00000000    
  0.71622771872021684       0.42430383419360657        0.00000000    
  0.65174240776885828       0.47742614532596217        0.00000000    
  0.58110264897849517       0.52298790736603284        0.00000000    
  0.50643674281055973       0.56092190608419124        0.00000000    
  0.42746248941705023       0.59249252323602164        0.00000000    
  0.34575177327439871       0.61733258966618931        0.00000000    
  0.26130392563218757       0.63665278262780423        0.00000000    
  0.17526353616479906       0.64987676842530029        0.00000000    
   8.7893299861155474E-002  0.65807787801368101        0.00000000    
   0.0000000000000000       0.66050738229771611        0.00000000    
   0.0000000000000000       0.74719658700540370        0.00000000    
  -8.4732850984318112E-002  0.74401685602853118        0.00000000    
 -0.16886397602248512       0.73544116486332201        0.00000000    
 -0.25205806759713251       0.72032484432828847        0.00000000    
 -0.33341226588353773       0.69946449602307681        0.00000000    
 -0.41286350997720933       0.67152443063977552        0.00000000    
 -0.48912797077949494       0.63713047650841859        0.00000000    
 -0.56246022579795507       0.59477916354979310        0.00000000    
 -0.63105830971522081       0.54487428185975284        0.00000000    
 -0.69556974361858859       0.48585387633666066        0.00000000    
 -0.75346150489290609       0.41775426875084370        0.00000000    
 -0.80582469532366774       0.33926363244249008        0.00000000    
 -0.84910342473084910       0.24975335354243272        0.00000000    
 -0.88466353600359893       0.14892087473602328        0.00000000    
 -0.90769067746935894        3.5071395772469205E-002   0.00000000    
 -0.91896100437131156       -8.9392391379357158E-002   0.00000000    