 <VTKFile type="UnstructuredGrid" version="0.1" byte_order="BigEndian">
 <UnstructuredGrid>
 <Piece NumberOfPoints="        2601 " NumberOfCells="        2500 ">
 <PointData Scalars="scalars">
 <DataArray type="Float32" NumberOfComponents="3" Name="Velocity" Format="ascii">
   0.0000000000000000        0.0000000000000000        0.00000000    
  -3.7742828073899976E-002   0.0000000000000000        0.00000000    
  -7.4923378197511478E-002   0.0000000000000000        0.00000000    
 -0.11110263325181097        0.0000000000000000        0.00000000    
 -0.14561645006142324        0.0000000000000000        0.00000000    
 -0.17816144528988059        0.0000000000000000        0.00000000    
 -0.20800366973891687        0.0000000000000000        0.00000000    
 -0.23498104602115580        0.0000000000000000        0.00000000    
 -0.25833291313967482        0.0000000000000000        0.00000000    
 -0.27803990712946031        0.0000000000000000        0.00000000    
 -0.29336729982668514        0.0000000000000000        0.00000000    
 -0.30443754895186848        0.0000000000000000        0.00000000    
 -0.31060027651979499        0.0000000000000000        0.00000000    
 -0.31211749092421748        0.0000000000000000        0.00000000    
 -0.30848123512447279        0.0000000000000000        0.00000000    
 -0.30008884559514110        0.0000000000000000        0.00000000    
 -0.28662469358098125        0.0000000000000000        0.00000000    
 -0.26861308904378084        0.0000000000000000        0.00000000    
 -0.24596440433083525        0.0000000000000000        0.00000000    
 -0.21931409302247473        0.0000000000000000        0.00000000    
 -0.18880963098257969        0.0000000000000000        0.00000000    
 -0.15517084226040484        0.0000000000000000        0.00000000    
 -0.11876816068497691        0.0000000000000000        0.00000000    
  -8.0365901365547179E-002   0.0000000000000000        0.00000000    
  -4.0520063358147493E-002   0.0000000000000000        0.00000000    
   1.3000842248063681E-005   0.0000000000000000        0.00000000    
   4.0546041608943699E-002   0.0000000000000000        0.00000000    
   8.0391682110871179E-002   0.0000000000000000        0.00000000    
  0.11879369740564895        0.0000000000000000        0.00000000    
  0.15519596533620758        0.0000000000000000        0.00000000    
  0.18883429540897995        0.0000000000000000        0.00000000    
  0.21933813792639667        0.0000000000000000        0.00000000    
  0.24598778729394358        0.0000000000000000        0.00000000    
  0.26863566162990937        0.0000000000000000        0.00000000    
  0.28664641622068071        0.0000000000000000        0.00000000    
  0.30010958558226458        0.0000000000000000        0.00000000    
  0.30850095765253416        0.0000000000000000        0.00000000    
  0.31213608006708637        0.0000000000000000        0.00000000    
  0.31061770252390375        0.0000000000000000        0.00000000    
  0.30445371456765064        0.0000000000000000        0.00000000    
  0.29338218023827323        0.0000000000000000        0.00000000    
  0.27805342343819034        0.0000000000000000        0.00000000    
  0.25834504605971098        0.0000000000000000        0.00000000    
  0.23499173446255767        0.0000000000000000        0.00000000    
  0.20801289929750910        0.0000000000000000        0.00000000    
  0.17816917169907606        0.0000000000000000        0.00000000    
  0.14562266360953174        0.0000000000000000        0.00000000    
  0.11110730508355249        0.0000000000000000        0.00000000    
   7.4926502744920132E-002   0.0000000000000000        0.00000000    
   3.7744391332361842E-002   0.0000000000000000        0.00000000    
   0.0000000000000000        0.0000000000000000        0.00000000    
   0.0000000000000000        3.7916195944639582E-002   0.00000000    
  -3.7836219097889319E-002   3.7664308628305498E-002   0.00000000    
  -7.5169625293280889E-002   3.6851105024022161E-002   0.00000000    
 -0.11138232329178849        3.5542305245754392E-002   0.00000000    
 -0.14610294260340939        3.3693587892425013E-002   0.00000000    
 -0.17862494523096670        3.1374866753282396E-002   0.00000000    
 -0.20871678493559992        2.8560653868244319E-002   0.00000000    
 -0.23562093397746864        2.5322327596538529E-002   0.00000000    
 -0.25924857366455528        2.1658634923251301E-002   0.00000000    
 -0.27883961819894382        1.7640858904519208E-002   0.00000000    
 -0.29444773419556852        1.3296104585373083E-002   0.00000000    
 -0.30536692725350828        8.6947919217647898E-003   0.00000000    
 -0.31179154173065016        3.8940038880361390E-003   0.00000000    
 -0.31312953874077909       -1.0373392152614655E-003   0.00000000    
 -0.30971283920230597       -6.0141634418688838E-003   0.00000000    
 -0.30111923464857610       -1.0970378470118154E-002   0.00000000    
 -0.28781245852475201       -1.5799098055160225E-002   0.00000000    
 -0.26958366039930287       -2.0439853474948873E-002   0.00000000    
 -0.24701705991281411       -2.4773981094554209E-002   0.00000000    
 -0.22014065976165778       -2.8751280151959862E-002   0.00000000    
 -0.18963859960268009       -3.2253792246186866E-002   0.00000000    
 -0.15577432643301534       -3.5247820168057442E-002   0.00000000    
 -0.11929893200479177       -3.7628806650711416E-002   0.00000000    
  -8.0684583932858142E-002  -3.9386351760411158E-002   0.00000000    
  -4.0702846328865200E-002  -4.0439775022671563E-002   0.00000000    
   1.2998313033395190E-005  -4.0807685061374430E-002   0.00000000    
   4.0728755556046110E-002  -4.0439664190072236E-002   0.00000000    
   8.0710359279886582E-002  -3.9386131207325280E-002   0.00000000    
  0.11932440102514154       -3.7628476852379404E-002   0.00000000    
  0.15579944347757646       -3.5247384345598896E-002   0.00000000    
  0.18966319874457696       -3.2253251516419265E-002   0.00000000    
  0.22016469749093590       -2.8750639946427195E-002   0.00000000    
  0.24704038102422288       -2.4773242741175448E-002   0.00000000    
  0.26960622410183116       -2.0439024042197516E-002   0.00000000    
  0.28783412402800873       -1.5798179341917493E-002   0.00000000    
  0.30113996474115079       -1.0969379119771642E-002   0.00000000    
  0.30973250944302322       -6.0130854809425805E-003   0.00000000    
  0.31314811696213402       -1.0361917712461140E-003   0.00000000    
  0.31180892140519112        3.8952181300016060E-003   0.00000000    
  0.30538308120717961        8.6960637894315882E-003   0.00000000    
  0.29446257460384972        1.3297431467743861E-002   0.00000000    
  0.27885312325616457        1.7642231476544833E-002   0.00000000    
  0.25926067384318680        2.1660050619001094E-002   0.00000000    
  0.23563161252243775        2.5323778013597406E-002   0.00000000    
  0.20872598943796292        2.8562136377124733E-002   0.00000000    
  0.17863266383276719        3.1376373294899694E-002   0.00000000    
  0.14610913910021900        3.3695116317432126E-002   0.00000000    
  0.11138699020720230        3.5543848119066905E-002   0.00000000    
   7.5172741394677625E-002   3.6852660249621021E-002   0.00000000    
   3.7837780627198447E-002   3.7665869264307386E-002   0.00000000    
   0.0000000000000000        3.7917760096976727E-002   0.00000000    
   0.0000000000000000        7.6079040660929673E-002   0.00000000    
  -3.8175328435730467E-002   7.5514407032024541E-002   0.00000000    
  -7.5785589996207103E-002   7.3946069912677326E-002   0.00000000    
 -0.11239358672577938        7.1269430466715272E-002   0.00000000    
 -0.14732692571130249        6.7621816202461771E-002   0.00000000    
 -0.18028743537429190        6.2930545666131238E-002   0.00000000    
 -0.21052716285614337        5.7337936834746604E-002   0.00000000    
 -0.23789124533428027        5.0814670411516778E-002   0.00000000    
 -0.26159975140043873        4.3503831802063672E-002   0.00000000    
 -0.28164117988941395        3.5429528452812754E-002   0.00000000    
 -0.29725772633685615        2.6733490497512519E-002   0.00000000    
 -0.30857929861272498        1.7499563749004320E-002   0.00000000    
 -0.31493111447472000        7.8670543716037530E-003   0.00000000    
 -0.31658172576826721       -2.0203900712785819E-003   0.00000000    
 -0.31300069805190872       -1.2027448972528110E-002   0.00000000    
 -0.30459126039905299       -2.1958744922114869E-002   0.00000000    
 -0.29102066116676206       -3.1686717184175969E-002   0.00000000    
 -0.27281943889293131       -4.0980865569182720E-002   0.00000000    
 -0.24988892823022493       -4.9728691384340995E-002   0.00000000    
 -0.22287255592943692       -5.7687954063212997E-002   0.00000000    
 -0.19191805127797312       -6.4772295236443969E-002   0.00000000    
 -0.15775622468574690       -7.0754029425537532E-002   0.00000000    
 -0.12076631414224105       -7.5586515096366574E-002   0.00000000    
  -8.1727115247580737E-002  -7.9080803261057153E-002   0.00000000    
  -4.1209528475120383E-002  -8.1243261006550299E-002   0.00000000    
   1.2926253789024514E-005  -8.1941111641092579E-002   0.00000000    
   4.1235358176473814E-002  -8.1243039968806913E-002   0.00000000    
   8.1752747563084122E-002  -7.9080361647071842E-002   0.00000000    
  0.12079170379148138       -7.5585857365885148E-002   0.00000000    
  0.15778120164151799       -7.0753156865856356E-002   0.00000000    
  0.19194257172658213       -6.4771216833893849E-002   0.00000000    
  0.22289645850156567       -5.7686672241177600E-002   0.00000000    
  0.24991217136641719       -4.9727218593412267E-002   0.00000000    
  0.27284187412382210       -4.0979205259544411E-002   0.00000000    
  0.29104225012149787       -3.1684884872083541E-002   0.00000000    
  0.30461187042155230       -2.1956744827381341E-002   0.00000000    
  0.31302029473725279       -1.2025298566607988E-002   0.00000000    
  0.31660019390071736       -2.0180944996244401E-003   0.00000000    
  0.31494842481704388        7.8694768232905367E-003   0.00000000    
  0.30859535437490798        1.7502107708387806E-002   0.00000000    
  0.29727250359685270        2.6736137336207656E-002   0.00000000    
  0.28165460088065258        3.5432272688803813E-002   0.00000000    
  0.26161179725433265        4.3506655850283703E-002   0.00000000    
  0.23790185592663732        5.0817569371812400E-002   0.00000000    
  0.21053632434388733        5.7340893948140285E-002   0.00000000    
  0.18029510412507002        6.2933556241299496E-002   0.00000000    
  0.14733309242555170        6.7624864735990095E-002   0.00000000    
  0.11239822316764822        7.1272513085838859E-002   0.00000000    
   7.5788690652842841E-002   7.3949171992280779E-002   0.00000000    
   3.8176879598489775E-002   7.5517524880553091E-002   0.00000000    
   0.0000000000000000        7.6082160293379136E-002   0.00000000    
   0.0000000000000000       0.11460986999903104        0.00000000    
  -3.8693749820683652E-002  0.11385398980050322        0.00000000    
  -7.6884244885040420E-002  0.11140857752994313        0.00000000    
 -0.11394285845175348       0.10747486682346748        0.00000000    
 -0.14950593193479733       0.10191412572923898        0.00000000    
 -0.18284467725179038        9.4938824370356223E-002   0.00000000    
 -0.21374073629248430        8.6466777482656729E-002   0.00000000    
 -0.24140291298460595        7.6713421523943448E-002   0.00000000    
 -0.26575820747884621        6.5670213284303683E-002   0.00000000    
 -0.28600332881237034        5.3551028520904230E-002   0.00000000    
 -0.30220784331155892        4.0434382446526036E-002   0.00000000    
 -0.31361698180651520        2.6530713280836289E-002   0.00000000    
 -0.32043936899450437        1.2011437880788019E-002   0.00000000    
 -0.32203454030535272       -2.9176613816449034E-003   0.00000000    
 -0.31874674690414673       -1.7997669921080858E-002   0.00000000    
 -0.31011273251221766       -3.3030647569445536E-002   0.00000000    
 -0.29660787535889649       -4.7688943179177282E-002   0.00000000    
 -0.27799622520415523       -6.1790184654859331E-002   0.00000000    
 -0.25487552661924151       -7.4969254828080756E-002   0.00000000    
 -0.22726486971999585       -8.7073093452245107E-002   0.00000000    
 -0.19586675951546140       -9.7738444848653266E-002   0.00000000    
 -0.16095441317791592      -0.10686072716523487        0.00000000    
 -0.12330418797697615      -0.11411862788486457        0.00000000    
  -8.3413230196599186E-002 -0.11947752210892118        0.00000000    
  -4.2085154538650464E-002 -0.12269087973736741        0.00000000    
   1.2848483512666723E-005 -0.12381262587079718        0.00000000    
   4.2110763571289095E-002 -0.12269054795901906        0.00000000    
   8.3438707430092934E-002 -0.11947686205046459        0.00000000    
  0.12332935997513526      -0.11411764069718794        0.00000000    
  0.16097923679266607      -0.10685942298571689        0.00000000    
  0.19589106796990444       -9.7736826398327717E-002   0.00000000    
  0.22728862156707860       -8.7071177193920657E-002   0.00000000    
  0.25489856631623181       -7.4967044887197645E-002   0.00000000    
  0.27801851366742275       -6.1787702355861215E-002   0.00000000    
  0.29662927168279379       -4.7686194440637673E-002   0.00000000    
  0.31013320121750926       -3.3027657349966821E-002   0.00000000    
  0.31876616425687332       -1.7994444949841256E-002   0.00000000    
  0.32205287511820546       -2.9142292821379215E-003   0.00000000    
  0.32045651598785979        1.2015069414646067E-002   0.00000000    
  0.31363291532832399        2.6534516210187788E-002   0.00000000    
  0.30222247714769268        4.0438348503564321E-002   0.00000000    
  0.28601664227381146        5.3555130182494547E-002   0.00000000    
  0.26577013295681390        6.5674443028233595E-002   0.00000000    
  0.24141343499081955        7.6717753522344737E-002   0.00000000    
  0.21374980423276538        8.6471204729014317E-002   0.00000000    
  0.18285227998725342        9.4943322754893422E-002   0.00000000    
  0.14951203443639879       0.10191868872433789        0.00000000    
  0.11394745385290150       0.10747947235442033        0.00000000    
   7.6887312923458268E-002  0.11141321984624615        0.00000000    
   3.8695287155572876E-002  0.11385864761031099        0.00000000    
   0.0000000000000000       0.11461453816842368        0.00000000    
   0.0000000000000000       0.15387048731242939        0.00000000    
  -3.9447675454823014E-002  0.15273606991843311        0.00000000    
  -7.8322759027255731E-002  0.14959334817074965        0.00000000    
 -0.11619473238295906       0.14422195502497465        0.00000000    
 -0.15236681675327207       0.13690346719971261        0.00000000    
 -0.18655800150871704       0.12748068439839857        0.00000000    
 -0.21797806697025185       0.11624231321557824        0.00000000    
 -0.24649549987591748       0.10311876608727628        0.00000000    
 -0.27127152892927392        8.8397462736733060E-002   0.00000000    
 -0.29231991398361601        7.2118555229729195E-002   0.00000000    
 -0.30881175377035958        5.4564479509885175E-002   0.00000000    
 -0.32090063969087163        3.5899909332141107E-002   0.00000000    
 -0.32783603587482196        1.6401293567216733E-002   0.00000000    
 -0.32990679149742541       -3.6403225991344609E-003   0.00000000    
 -0.32651230430107508       -2.3956022129077610E-002   0.00000000    
 -0.31807328784237077       -4.4144059860791424E-002   0.00000000    
 -0.30420340730436590       -6.3949002598879853E-002   0.00000000    
 -0.28545089678904817       -8.2893020683345711E-002   0.00000000    
 -0.26168897351330139      -0.10074777578923404        0.00000000    
 -0.23358356313870698      -0.11700937554092120        0.00000000    
 -0.20128365757244282      -0.13149891460685542        0.00000000    
 -0.16555176493185636      -0.14374323295520683        0.00000000    
 -0.12679524881712603      -0.15364160020054762        0.00000000    
  -8.5835849857358204E-002 -0.16080364363278637        0.00000000    
  -4.3291314703685302E-002 -0.16523610624096099        0.00000000    
   1.2697887438661996E-005 -0.16666815230167861        0.00000000    
   4.3316689751595493E-002 -0.16523566580120438        0.00000000    
   8.5861027948188812E-002 -0.16080276347949138        0.00000000    
  0.12682018869362582      -0.15364028965791460        0.00000000    
  0.16557629523163941      -0.14374149417042201        0.00000000    
  0.20130773801515139      -0.13149676574421362        0.00000000    
  0.23360703140786251      -0.11700682091382701        0.00000000    
  0.26171179081468299      -0.10074484109898485        0.00000000    
  0.28547291434795757       -8.2889712157274406E-002   0.00000000    
  0.30422458911944078       -6.3945352203876107E-002   0.00000000    
  0.31809350143995402       -4.4140075461368528E-002   0.00000000    
  0.32653151749295084       -2.3951739579120161E-002   0.00000000    
  0.32992489084921950       -3.6357516980177230E-003   0.00000000    
  0.32785299419970981        1.6406115146308554E-002   0.00000000    
  0.32091636248760230        3.5904971216388921E-002   0.00000000    
  0.30882621881072309        5.4569744054552734E-002   0.00000000    
  0.29233304598585930        7.2124011816975836E-002   0.00000000    
  0.27128331068406702        8.8403075786449126E-002   0.00000000    
  0.24650587406089888       0.10312452582196865        0.00000000    
  0.21798702127276054       0.11624818667459652        0.00000000    
  0.18656549484394977       0.12748666274291048        0.00000000    
  0.15237284075853957       0.13690951979922991        0.00000000    
  0.11619926062156004       0.14422807381919273        0.00000000    
   7.8325786969590666E-002  0.14959950488336154        0.00000000    
   3.9449190197743352E-002  0.15274225723545176        0.00000000    
   0.0000000000000000       0.15387667805300204        0.00000000    
   0.0000000000000000       0.19383622049944915        0.00000000    
  -4.0357514081275685E-002  0.19257673683146770        0.00000000    
  -8.0212966640951400E-002  0.18848442783807720        0.00000000    
 -0.11891750851436009       0.18190860098269254        0.00000000    
 -0.15612567108700198       0.17259827824041107        0.00000000    
 -0.19106433586003643       0.16091693283598962        0.00000000    
 -0.22354481320874539       0.14670781699252902        0.00000000    
 -0.25270734357267410       0.13033443482395221        0.00000000    
 -0.27851407327362943       0.11176576128008134        0.00000000    
 -0.30007239893393284        9.1358175711746384E-002   0.00000000    
 -0.31748687597126118        6.9232383315037171E-002   0.00000000    
 -0.32990064581112327        4.5735868483798937E-002   0.00000000    
 -0.33755308082884694        2.1154371889411834E-002   0.00000000    
 -0.33970131633517187       -4.1732038301039494E-003   0.00000000    
 -0.33671484384537587       -2.9802895564161106E-002   0.00000000    
 -0.32804302929327001       -5.5406812753858989E-002   0.00000000    
 -0.31418331367555008       -8.0414642078393661E-002   0.00000000    
 -0.29484209995003269      -0.10451990200301077        0.00000000    
 -0.27064156211320434      -0.12708215293929179        0.00000000    
 -0.24158248619695202      -0.14783828235443808        0.00000000    
 -0.20840110948322491      -0.16615008839310033        0.00000000    
 -0.17139270004501822      -0.18183115982447276        0.00000000    
 -0.13138207801630472      -0.19431961050613034        0.00000000    
  -8.8920623537425081E-002 -0.20354528596561433        0.00000000    
  -4.4876030248252673E-002 -0.20908239178516597        0.00000000    
   1.2539715973914839E-005 -0.21101324880563424        0.00000000    
   4.4901020741026178E-002 -0.20908184167929444        0.00000000    
   8.8945486862606518E-002 -0.20354419135365875        0.00000000    
  0.13140663850588319      -0.19431797337217235        0.00000000    
  0.17141691984460347      -0.18182899736412508        0.00000000    
  0.20842482028940032      -0.16614740435540759        0.00000000    
  0.24160565085419164      -0.14783510457965685        0.00000000    
  0.27066402417388974      -0.12707848783219700        0.00000000    
  0.29486382388789850      -0.10451578602817788        0.00000000    
  0.31420415844593474       -8.0410084220560146E-002   0.00000000    
  0.32806296229458315       -5.5401855830327619E-002   0.00000000    
  0.33673374290503932       -2.9797551190613000E-002   0.00000000    
  0.33971915308830153       -4.1675186055338230E-003   0.00000000    
  0.33756975263027678        2.1160385124057903E-002   0.00000000    
  0.32991612938154236        4.5742162472135271E-002   0.00000000    
  0.31750108844823088        6.9238944605886532E-002   0.00000000    
  0.30008532187895431        9.1364958123393500E-002   0.00000000    
  0.27852564275239616       0.11177275221959936        0.00000000    
  0.25271754603794111       0.13034159125269892        0.00000000    
  0.22355360157654641       0.14671512773796483        0.00000000    
  0.19107170091734654       0.16092435817241871        0.00000000    
  0.15613158117479356       0.17260580814805476        0.00000000    
  0.11892195784690328       0.18191619899128236        0.00000000    
   8.0215936687955652E-002  0.18849208491870059        0.00000000    
   4.0359002150837285E-002  0.19258441895792158        0.00000000    
   0.0000000000000000       0.19384391924365663        0.00000000    
   0.0000000000000000       0.23498265328707596        0.00000000    
  -4.1480874359876900E-002  0.23326984148309354        0.00000000    
  -8.2379408984135469E-002  0.22854645935033949        0.00000000    
 -0.12228025790640100       0.22045310898530010        0.00000000    
 -0.16044726864409528       0.20943009221134867        0.00000000    
 -0.19663313356583609       0.19521079671650216        0.00000000    
 -0.22997644196782471       0.17823888692138562        0.00000000    
 -0.26039044036567771       0.15838104099284944        0.00000000    
 -0.28693493272541737       0.13607152436243661        0.00000000    
 -0.30967168995004563       0.11134864180934557        0.00000000    
 -0.32764700497606913        8.4632855378693625E-002   0.00000000    
 -0.34105883950830163        5.6162145877020279E-002   0.00000000    
 -0.34902159060388677        2.6344425445291988E-002   0.00000000    
 -0.35186059963418365       -4.3748690801130134E-003   0.00000000    
 -0.34884864730748666       -3.5598511655112360E-002   0.00000000    
 -0.34043516784443256       -6.6695348253721795E-002   0.00000000    
 -0.32613662523221654       -9.7283222705711020E-002   0.00000000    
 -0.30652730858582461      -0.12660071061253539        0.00000000    
 -0.28143006785591118      -0.15429798208393863        0.00000000    
 -0.25154309116564655      -0.17956736582584601        0.00000000    
 -0.21701953017058442      -0.20212480292890489        0.00000000    
 -0.17866979872219174      -0.22121344709878091        0.00000000    
 -0.13695460350112304      -0.23666200162398618        0.00000000    
  -9.2764949948703240E-002 -0.24785286441171830        0.00000000    
  -4.6804514719254439E-002 -0.25477870350853227        0.00000000    
   1.2302396805955253E-005 -0.25702118594605255        0.00000000    
   4.6829102597461314E-002 -0.25477804754800487        0.00000000    
   9.2789342078704568E-002 -0.24785155273861775        0.00000000    
  0.13697876559252406      -0.23666004867681564        0.00000000    
  0.17869355685870303      -0.22121085580668012        0.00000000    
  0.21704285033483681      -0.20212160075706817        0.00000000    
  0.25156580944748980      -0.17956355815370148        0.00000000    
  0.28145215040707061      -0.15429360854667165        0.00000000    
  0.30654860593049404      -0.12659577973832686        0.00000000    
  0.32615710549244664       -9.7277783494971778E-002   0.00000000    
  0.34045469975702569       -6.6689412566077938E-002   0.00000000    
  0.34886720213120476       -3.5592135014734287E-002   0.00000000    
  0.35187806632267604       -4.3680656802385157E-003   0.00000000    
  0.34903794475358418        2.6351597995595874E-002   0.00000000    
  0.34107399064251376        5.6169671796627657E-002   0.00000000    
  0.32766093382642769        8.4640678116084361E-002   0.00000000    
  0.30968432593170875       0.11135674517557749        0.00000000    
  0.28694626153141078       0.13607985498983816        0.00000000    
  0.26040040926711544       0.15838958465229158        0.00000000    
  0.22998504093166819       0.17824759447175645        0.00000000    
  0.19664032582379129       0.19521965526493129        0.00000000    
  0.16045304778485592       0.20943905699429385        0.00000000    
  0.12228460089101108       0.22046216903056706        0.00000000    
   8.2382312263637389E-002  0.22855557338553137        0.00000000    
   4.1482326584348771E-002  0.23327899968804575        0.00000000    
   0.0000000000000000       0.23499181624741902        0.00000000    
   0.0000000000000000       0.27710572181563647        0.00000000    
  -4.2717990453828923E-002  0.27534672533274474        0.00000000    
  -8.4940819624747310E-002  0.26959202671155075        0.00000000    
 -0.12599244091668726       0.26036109923371525        0.00000000    
 -0.16556152046350933       0.24725927920483234        0.00000000    
 -0.20280905131214477       0.23081609240506734        0.00000000    
 -0.23759921043741211       0.21076814496963414        0.00000000    
 -0.26896655564588662       0.18763421268010017        0.00000000    
 -0.29693519899179260       0.16133257358515210        0.00000000    
 -0.32047136008232319       0.13236159598009528        0.00000000    
 -0.33974088920455231       0.10086582934315762        0.00000000    
 -0.35372203675707853        6.7323237803468897E-002   0.00000000    
 -0.36270675693492627        3.2131887409171375E-002   0.00000000    
 -0.36578375461586238       -4.2452419544749690E-003   0.00000000    
 -0.36336260772590495       -4.1160156829575474E-002   0.00000000    
 -0.35474719902477914       -7.8161510364548742E-002   0.00000000    
 -0.34046515406602879      -0.11439656843953308        0.00000000    
 -0.32012698159788944      -0.14943377458542659        0.00000000    
 -0.29438430171043878      -0.18230376034045603        0.00000000    
 -0.26320947740978801      -0.21262231048670913        0.00000000    
 -0.22738051887075605      -0.23942130055132499        0.00000000    
 -0.18723335816183403      -0.26241276465145830        0.00000000    
 -0.14365879014914237      -0.28075137089875751        0.00000000    
  -9.7301935926065758E-002 -0.29430892668770808        0.00000000    
  -4.9125448255000738E-002 -0.30245848820441829        0.00000000    
   1.2054483430303454E-005 -0.30529464524021621        0.00000000    
   4.9149466528627415E-002 -0.30245772463529952        0.00000000    
   9.7325834773682979E-002 -0.29430740744885481        0.00000000    
  0.14368239091716803      -0.28074909739911286        0.00000000    
  0.18725663124045192      -0.26240976226732859        0.00000000    
  0.22740329326055109      -0.23941757281031770        0.00000000    
  0.26323172293450503      -0.21261789763596883        0.00000000    
  0.29440586045835154      -0.18229866947409831        0.00000000    
  0.32014782332970210      -0.14942805881737231        0.00000000    
  0.34048513811209213      -0.11439023935217585        0.00000000    
  0.35476629733415505       -7.8154630468791730E-002   0.00000000    
  0.36338070012689655       -4.1152741399704977E-002   0.00000000    
  0.36580081607485188       -4.2373582664051142E-003   0.00000000    
  0.36272268906166172        3.2140221542739038E-002   0.00000000    
  0.35373681969928572        6.7331954340331721E-002   0.00000000    
  0.33975444585328185       0.10087491004108994        0.00000000    
  0.32048367541481843       0.13237097557125874        0.00000000    
  0.29694621479483713       0.16134223469325537        0.00000000    
  0.26897626146907289       0.18764409574382757        0.00000000    
  0.23760756503560124       0.21077823427886175        0.00000000    
  0.20281604797802191       0.23082633383343437        0.00000000    
  0.16556713198612713       0.24726965936887285        0.00000000    
  0.12599666325565348       0.26037156923829757        0.00000000    
   8.4943637364414876E-002  0.26960257509243329        0.00000000    
   4.2719401860993093E-002  0.27535730658015323        0.00000000    
   0.0000000000000000       0.27711632536576991        0.00000000    
   0.0000000000000000       0.32080171077663955        0.00000000    
  -4.4132012613037792E-002  0.31850176557896998        0.00000000    
  -8.7673815556391879E-002  0.31220264471920561        0.00000000    
 -0.13023956885199636       0.30136888161868880        0.00000000    
 -0.17104085882511938       0.28662289213871667        0.00000000    
 -0.20988822858267808       0.26754840522595225        0.00000000    
 -0.24581946729436160       0.24475825511159621        0.00000000    
 -0.27882321649721742       0.21801622114647706        0.00000000    
 -0.30781059969381658       0.18790761580284246        0.00000000    
 -0.33292418103341359       0.15443731918181092        0.00000000    
 -0.35302206498887184       0.11815854210233140        0.00000000    
 -0.36837636829012210        7.9366997476830542E-002   0.00000000    
 -0.37789267049984671        3.8590171531098817E-002   0.00000000    
 -0.38195478252094189       -3.5633963395816080E-003   0.00000000    
 -0.37963578274560278       -4.6581129315669982E-002   0.00000000    
 -0.37142547016580074       -8.9565240716448780E-002   0.00000000    