 <VTKFile type="UnstructuredGrid" version="0.1" byte_order="BigEndian">
 <UnstructuredGrid>
 <Piece NumberOfPoints="        2601 " NumberOfCells="        2500 ">
 <PointData Scalars="scalars">
 <DataArray type="Float32" NumberOfComponents="3" Name="Velocity" Format="ascii">
   0.0000000000000000        0.0000000000000000        0.00000000    
  -8.7022998250116126E-002   0.0000000000000000        0.00000000    
 -0.17531506157403146        0.0000000000000000        0.00000000    
 -0.26607991388284308        0.0000000000000000        0.00000000    
 -0.36087806899117852        0.0000000000000000        0.00000000    
 -0.46090946996215809        0.0000000000000000        0.00000000    
 -0.56819502317909465        0.0000000000000000        0.00000000    
 -0.68283994820662719        0.0000000000000000        0.00000000    
 -0.80590859697664374        0.0000000000000000        0.00000000    
 -0.92258576862806385        0.0000000000000000        0.00000000    
  -1.0123293371116064        0.0000000000000000        0.00000000    
  -1.0466807809257963        0.0000000000000000        0.00000000    
  -1.0221696018439759        0.0000000000000000        0.00000000    
 -0.97052660609419317        0.0000000000000000        0.00000000    
 -0.91692435979817155        0.0000000000000000        0.00000000    
 -0.83222764881167866        0.0000000000000000        0.00000000    
 -0.71916494719163981        0.0000000000000000        0.00000000    
 -0.62882562796067909        0.0000000000000000        0.00000000    
 -0.54452308620038092        0.0000000000000000        0.00000000    
 -0.43466734790312422        0.0000000000000000        0.00000000    
 -0.33297624089212730        0.0000000000000000        0.00000000    
 -0.25495067675088151        0.0000000000000000        0.00000000    
 -0.18422216852548404        0.0000000000000000        0.00000000    
 -0.12625686749116388        0.0000000000000000        0.00000000    
  -7.7441322478635347E-002   0.0000000000000000        0.00000000    
  -2.6578272076671461E-002   0.0000000000000000        0.00000000    
   1.7525728240569364E-002   0.0000000000000000        0.00000000    
   7.0580307735191625E-002   0.0000000000000000        0.00000000    
  0.12423915888270931        0.0000000000000000        0.00000000    
  0.18199160578814300        0.0000000000000000        0.00000000    
  0.30401905782582167        0.0000000000000000        0.00000000    
  0.44577939998825200        0.0000000000000000        0.00000000    
  0.53487440853556778        0.0000000000000000        0.00000000    
  0.61496614961391705        0.0000000000000000        0.00000000    
  0.75232974140528996        0.0000000000000000        0.00000000    
  0.86758218031160506        0.0000000000000000        0.00000000    
  0.92966016384284489        0.0000000000000000        0.00000000    
  0.98249526136603205        0.0000000000000000        0.00000000    
   1.0283426562626339        0.0000000000000000        0.00000000    
   1.0519673442140345        0.0000000000000000        0.00000000    
   1.0199355911937313        0.0000000000000000        0.00000000    
  0.92994998617394875        0.0000000000000000        0.00000000    
  0.80858541244025706        0.0000000000000000        0.00000000    
  0.68453997018757062        0.0000000000000000        0.00000000    
  0.56872072850682076        0.0000000000000000        0.00000000    
  0.46115836777116237        0.0000000000000000        0.00000000    
  0.36080117098651859        0.0000000000000000        0.00000000    
  0.26599346104940891        0.0000000000000000        0.00000000    
  0.17518711120232155        0.0000000000000000        0.00000000    
   8.6964753425909688E-002   0.0000000000000000        0.00000000    
   0.0000000000000000        0.0000000000000000        0.00000000    
   0.0000000000000000        8.5655218003767131E-002   0.00000000    
  -8.4850029175210603E-002   8.6217809421462316E-002   0.00000000    
 -0.17075666353666749        8.7980888263808663E-002   0.00000000    
 -0.25891380347558729        9.0941103983821991E-002   0.00000000    
 -0.35032697253316536        9.5270220181978033E-002   0.00000000    
 -0.44644277754624834       0.10087698580197332        0.00000000    
 -0.54791370695489261       0.10787949682347306        0.00000000    
 -0.65610986207334632       0.11496158332238886        0.00000000    
 -0.76850445553488489       0.12050165890900678        0.00000000    
 -0.88283859630126060       0.11050965350868470        0.00000000    
 -0.97324672614061625        6.9642044814106296E-002   0.00000000    
  -1.0132109246686485        4.6735975281616982E-003   0.00000000    
  -1.0069551142661877       -3.5440587012380696E-002   0.00000000    
 -0.96901906912400826       -5.4138453879290775E-002   0.00000000    
 -0.90120061399300322       -6.7282247547595070E-002   0.00000000    
 -0.81441418446703373      -0.10420089296449517        0.00000000    
 -0.71929261672208633      -0.10398337640023382        0.00000000    
 -0.62447946675305754       -8.1169092799361589E-002   0.00000000    
 -0.52940902720073857       -9.8203888513017881E-002   0.00000000    
 -0.43264742402658329      -0.10841345295789462        0.00000000    
 -0.33979973432247512       -8.6125343756877207E-002   0.00000000    
 -0.25717180680367546       -7.4528147902808858E-002   0.00000000    
 -0.18710610398092545       -6.6266063145039106E-002   0.00000000    
 -0.12752137099362743       -5.1283970876280865E-002   0.00000000    
  -7.4391078499596086E-002  -5.0661866630043711E-002   0.00000000    
  -2.6491651377634706E-002  -4.8100610893582210E-002   0.00000000    
   2.1946207915048331E-002  -4.4441248716089614E-002   0.00000000    
   7.3785632121905823E-002  -6.0452754985124944E-002   0.00000000    
  0.13083605323660077       -5.0256517276673018E-002   0.00000000    
  0.20726039046654188       -8.3920266858483097E-002   0.00000000    
  0.30857189537841589      -0.13941869009018190        0.00000000    
  0.42108152984506442      -0.11485128653843463        0.00000000    
  0.52592401151031853       -7.9086203673498112E-002   0.00000000    
  0.62427681033308235       -9.9358336227351934E-002   0.00000000    
  0.72842980608686259      -0.14215825131700383        0.00000000    
  0.83641046138602615       -8.1074842888113258E-002   0.00000000    
  0.91754603402802959       -6.2138713284804137E-002   0.00000000    
  0.97784947337335126       -5.0999823583481499E-002   0.00000000    
   1.0160967482504299       -3.3094846189967574E-002   0.00000000    
   1.0195801778171898        5.9867286719479870E-003   0.00000000    
  0.97736246213724665        6.8262740028334976E-002   0.00000000    
  0.88504830006686019       0.11403702706175757        0.00000000    
  0.77054497136572064       0.12183087537294336        0.00000000    
  0.65678098671918084       0.11597855152613173        0.00000000    
  0.54829477587700926       0.10832690099665360        0.00000000    
  0.44637597052486377       0.10115426509102012        0.00000000    
  0.35022570530738611        9.5353196910983554E-002   0.00000000    
  0.25871656677041749        9.0963651562983916E-002   0.00000000    
  0.17062866878747981        8.7930596266936889E-002   0.00000000    
   8.4763467201826925E-002   8.6156963095026642E-002   0.00000000    
   0.0000000000000000        8.5571257532611134E-002   0.00000000    
   0.0000000000000000       0.16712302146313621        0.00000000    
  -7.8554518384435168E-002  0.16815455352163322        0.00000000    
 -0.15777800542783715       0.17117426556839554        0.00000000    
 -0.23823226618958637       0.17635912737978590        0.00000000    
 -0.32057346478023774       0.18360656443414039        0.00000000    
 -0.40500967821949169       0.19309266000200662        0.00000000    
 -0.49180593995219157       0.20393101376467473        0.00000000    
 -0.57996793149721970       0.21526821304448956        0.00000000    
 -0.66803108379764031       0.22065277494875529        0.00000000    
 -0.75470614131385994       0.21136773575128459        0.00000000    
 -0.83790491036793902       0.14239086146488272        0.00000000    
 -0.89990928173640350        3.3893350773748651E-002   0.00000000    
 -0.91570994558420804       -5.5115486811343713E-002   0.00000000    
 -0.86910721629622512      -0.11900232850943036        0.00000000    
 -0.77355160943233670      -0.16579243490637444        0.00000000    
 -0.67373038443369260      -0.19229836012792470        0.00000000    
 -0.59784490363406506      -0.18689295777535495        0.00000000    
 -0.51092379623112638      -0.17999376879410278        0.00000000    
 -0.42460194041396815      -0.18077150788233692        0.00000000    
 -0.36459652303049089      -0.18261285414419570        0.00000000    
 -0.30142345551542232      -0.16794669978510812        0.00000000    
 -0.22575381684034465      -0.15100435806641252        0.00000000    
 -0.14909256448271047      -0.13651680815798731        0.00000000    
  -8.2097788932924382E-002 -0.10761273439876509        0.00000000    
  -3.6601899325065052E-002  -9.2959285206512157E-002   0.00000000    
   4.3061982515445714E-003  -9.4610717014445553E-002   0.00000000    
   4.7931220114526024E-002  -8.9994023748555890E-002   0.00000000    
   8.4365877991834107E-002 -0.10317406203509542        0.00000000    
  0.14716512066496848      -0.12738487401198550        0.00000000    
  0.23612415371563675      -0.17217528040089650        0.00000000    
  0.29599472350498340      -0.21234575124608221        0.00000000    
  0.34199168859357498      -0.20043082493401199        0.00000000    
  0.42139237855276690      -0.17774983689944132        0.00000000    
  0.52001893986166936      -0.19767406312871311        0.00000000    
  0.58600600879817633      -0.21398258910282897        0.00000000    
  0.65184031111230722      -0.18306546271084573        0.00000000    
  0.75942799077918066      -0.14887134576728744        0.00000000    
  0.85710020249394092      -0.12224284215594468        0.00000000    
  0.91263496256809273       -5.5633862566021347E-002   0.00000000    
  0.89812862443607899        3.9548653614145036E-002   0.00000000    
  0.83229655980316908       0.14275059539901602        0.00000000    
  0.75166714850630101       0.21249274505817245        0.00000000    
  0.66677420991478287       0.22277142466898944        0.00000000    
  0.57931700351652438       0.21625919327473359        0.00000000    
  0.49118914230279798       0.20466033130379360        0.00000000    
  0.40457023146510590       0.19335855097358798        0.00000000    
  0.32013545358628237       0.18373395412458796        0.00000000    
  0.23792867947479443       0.17629880699772282        0.00000000    
  0.15754100125997167       0.17107101702984553        0.00000000    
   7.8445546438537836E-002  0.16797719873909867        0.00000000    
   0.0000000000000000       0.16696003552879826        0.00000000    
   0.0000000000000000       0.24080460763210085        0.00000000    
  -6.8937394365057691E-002  0.24196488010205516        0.00000000    
 -0.13792146879466111       0.24557150046086079        0.00000000    
 -0.20695000453281662       0.25144468898712452        0.00000000    
 -0.27572756284906741       0.25963975973356418        0.00000000    
 -0.34368984177936673       0.26945795707203601        0.00000000    
 -0.40954892212453298       0.28022105877233533        0.00000000    
 -0.47099743257136051       0.28858867002858268        0.00000000    
 -0.52536846197752773       0.28976649967100448        0.00000000    
 -0.56601060195853936       0.26957120852615762        0.00000000    
 -0.59491262315969717       0.19628817894476955        0.00000000    
 -0.61696601415387764        6.4053795656730680E-002   0.00000000    
 -0.61509092335957516       -7.1350358638332056E-002   0.00000000    
 -0.58143321164201722      -0.18302789768165398        0.00000000    
 -0.53799508596085266      -0.24076059827711041        0.00000000    
 -0.50129030303989552      -0.25385620467026709        0.00000000    
 -0.43477519145971233      -0.26773570561090754        0.00000000    
 -0.36945642874583456      -0.25139089106932705        0.00000000    
 -0.32393063899792646      -0.24122203117039637        0.00000000    
 -0.27167933105300163      -0.23441905617928180        0.00000000    
 -0.23100792393511396      -0.21998497238112014        0.00000000    
 -0.18932005430375834      -0.21632359377242610        0.00000000    
 -0.13102032923997950      -0.20615854987149157        0.00000000    
  -7.6396371780627345E-002 -0.15958972569094446        0.00000000    
  -2.7172330200080093E-002 -0.13570222510147986        0.00000000    
   1.5742986837631853E-002 -0.13569119173107852        0.00000000    
   5.4770363074704516E-002 -0.13156594713070688        0.00000000    
   9.7492767842915981E-002 -0.14075920129618208        0.00000000    
  0.15339393864066556      -0.20850014821951754        0.00000000    
  0.20934048941688999      -0.23596559001730594        0.00000000    
  0.24073600773461107      -0.23982152973334830        0.00000000    
  0.27279371326874174      -0.25100971706659625        0.00000000    
  0.31936822613472565      -0.25314614758788878        0.00000000    
  0.36242392196227263      -0.26396000957379862        0.00000000    
  0.42292827249994885      -0.27418806212722269        0.00000000    
  0.48727436523029399      -0.25304038472766588        0.00000000    
  0.52648522322106472      -0.22569496140314999        0.00000000    
  0.57022161209054367      -0.18682782710056628        0.00000000    
  0.59879021097378138       -7.5152236574189055E-002   0.00000000    
  0.60314526897449150        6.9218307757733730E-002   0.00000000    
  0.58820122234866501       0.19385705251415153        0.00000000    
  0.56092982977330819       0.26928709181489807        0.00000000    
  0.52170251930903822       0.29009732696786039        0.00000000    
  0.46881396395892805       0.28927905272403798        0.00000000    
  0.40811229594156739       0.28047000108543224        0.00000000    
  0.34265772112804255       0.26962236684301821        0.00000000    
  0.27502264230815848       0.25953999495374208        0.00000000    
  0.20643100580648771       0.25129117678160290        0.00000000    
  0.13760616775386919       0.24529116351329447        0.00000000    
   6.8774251319889415E-002  0.24168442351095021        0.00000000    
   0.0000000000000000       0.24047260851526478        0.00000000    
   0.0000000000000000       0.30382213666636487        0.00000000    
  -5.7054616931472277E-002  0.30493936236420632        0.00000000    
 -0.11356440834202317       0.30809088403876134        0.00000000    
 -0.16884106300403723       0.31323049580925966        0.00000000    
 -0.22190849785776953       0.31969894608131622        0.00000000    
 -0.27133353009329952       0.32678608188994779        0.00000000    
 -0.31481195713100601       0.33223044133720436        0.00000000    
 -0.34951687150344130       0.33273271228275680        0.00000000    
 -0.37041406593260362       0.32089068125206527        0.00000000    
 -0.37417482497441290       0.28284992596757891        0.00000000    
 -0.36213284327942286       0.19986950100934134        0.00000000    
 -0.34072672711429919        6.1119748420693280E-002   0.00000000    
 -0.31958683532354815       -9.1431293982002670E-002   0.00000000    
 -0.31086375637420927      -0.20532775300281733        0.00000000    
 -0.30191278549581857      -0.27084983950879787        0.00000000    
 -0.28075648620931681      -0.28162804564427368        0.00000000    
 -0.25669820131767740      -0.33053726110196813        0.00000000    
 -0.22152476638317681      -0.28908153322525904        0.00000000    
 -0.18836157899865474      -0.28222036614093304        0.00000000    
 -0.16629498043616553      -0.26773862771453000        0.00000000    
 -0.14358150749691340      -0.25005028089801079        0.00000000    
 -0.13143481836757151      -0.24009284401448466        0.00000000    
 -0.11625783466071730      -0.25586600839591189        0.00000000    
  -7.4410551686899126E-002 -0.20635350759778232        0.00000000    
  -3.4524456914126228E-002 -0.17804857954705444        0.00000000    
   7.8937586270936937E-003 -0.17867836986384894        0.00000000    
   5.1154319958273992E-002 -0.17086670656413291        0.00000000    
   9.3183796357306906E-002 -0.18621032302983367        0.00000000    
  0.13418110263376540      -0.25994750355734852        0.00000000    
  0.14752081615224991      -0.25380449897109902        0.00000000    
  0.15555924432623314      -0.26141656726839929        0.00000000    
  0.17221172143673408      -0.27812486217233801        0.00000000    
  0.18980979663931427      -0.29020359054791628        0.00000000    
  0.21801118642867939      -0.29815965222607049        0.00000000    
  0.24770822036768142      -0.33018980394878628        0.00000000    
  0.26764966247395838      -0.28132617773762075        0.00000000    
  0.28909057265675303      -0.25806093656331408        0.00000000    
  0.30040685999880645      -0.20951452814706548        0.00000000    
  0.31042853469506210       -9.1055809103304172E-002   0.00000000    
  0.33209023367130314        5.9105123313262189E-002   0.00000000    
  0.35496126843712550       0.19604324881833277        0.00000000    
  0.36851507106601866       0.28081848545688720        0.00000000    
  0.36640458982776219       0.31990372502814707        0.00000000    
  0.34657699683001031       0.33218880301145004        0.00000000    
  0.31284204085568706       0.33199687478953349        0.00000000    
  0.26996202437193872       0.32643008443605959        0.00000000    
  0.22094770023855628       0.31938168031382902        0.00000000    
  0.16820027819848646       0.31278854996314021        0.00000000    
  0.11315566861721969       0.30766323796552131        0.00000000    
   5.6862616352557224E-002  0.30443731775725402        0.00000000    
   0.0000000000000000       0.30335658194129467        0.00000000    
   0.0000000000000000       0.35463426427706929        0.00000000    
  -4.4121286941565759E-002  0.35530313862643120        0.00000000    
  -8.7211424088927444E-002  0.35732703633432278        0.00000000    
 -0.12808142815082246       0.36014100223751144        0.00000000    
 -0.16530885042048740       0.36308329677630941        0.00000000    
 -0.19691794820431963       0.36443586121423066        0.00000000    
 -0.22062635966337307       0.36176750050948836        0.00000000    
 -0.23311177347360834       0.35038598129306397        0.00000000    
 -0.23176247901049635       0.32278531220754486        0.00000000    
 -0.21532410555685050       0.26827768060017310        0.00000000    
 -0.18850197474716501       0.17557763387170416        0.00000000    
 -0.16620949620262182        4.1713020848591152E-002   0.00000000    
 -0.15860622184859932      -0.10076773255499527        0.00000000    
 -0.15715921388177648      -0.20616140134270999        0.00000000    
 -0.16185281109116659      -0.27427356483722498        0.00000000    
 -0.15936449551654416      -0.30184893517295064        0.00000000    
 -0.15777645725956868      -0.33596269472175500        0.00000000    
 -0.16095591801397521      -0.31565007377861243        0.00000000    
 -0.15247623542812616      -0.29729469555790827        0.00000000    
 -0.14199874875817112      -0.28520838352839106        0.00000000    
 -0.13127620069271434      -0.26601654608859726        0.00000000    
 -0.11485628030520094      -0.25269318834000731        0.00000000    
 -0.10251700035909714      -0.27078192772324128        0.00000000    
  -8.5427452584387636E-002 -0.25037441901678387        0.00000000    
  -4.2325880887572859E-002 -0.21701533459763600        0.00000000    
   3.2440377445488301E-003 -0.22769974898606324        0.00000000    
   4.9713262552982293E-002 -0.21157511358121930        0.00000000    
   9.8049614469638988E-002 -0.23586774432828814        0.00000000    
  0.11999495398722586      -0.27323272805187243        0.00000000    
  0.12899056179042506      -0.26285459579790255        0.00000000    
  0.14166270161976113      -0.27307703844445574        0.00000000    
  0.14992190279279632      -0.29137606927933463        0.00000000    
  0.15803333572987505      -0.30266189157956130        0.00000000    
  0.16412234824886093      -0.31999175350245818        0.00000000    
  0.16010950151162742      -0.33404188987011368        0.00000000    
  0.16102452094753178      -0.29833055335772934        0.00000000    
  0.16416882341109135      -0.26564177358782959        0.00000000    
  0.15817928811324977      -0.20726044316511927        0.00000000    
  0.15579905663041821      -0.10095133729672053        0.00000000    
  0.16366049566531449        3.9477513495535591E-002   0.00000000    
  0.18478874852789903       0.17167157100745500        0.00000000    
  0.21128632075207140       0.26513878841444583        0.00000000    
  0.22828406340642682       0.32069616065430900        0.00000000    
  0.23046657150420680       0.34904145228506878        0.00000000    
  0.21860464132076093       0.36074111167354772        0.00000000    
  0.19548132040454635       0.36368918495185798        0.00000000    
  0.16428397573684733       0.36233424859899271        0.00000000    
  0.12738307909877011       0.35948430035599538        0.00000000    
   8.6778090129668112E-002  0.35661708612292203        0.00000000    
   4.3911412550241433E-002  0.35464319944382539        0.00000000    
   0.0000000000000000       0.35392472915740980        0.00000000    
   0.0000000000000000       0.39257361072208297        0.00000000    
  -3.1249246710816376E-002  0.39273432583368273        0.00000000    
  -6.1165402302447901E-002  0.39290214186596478        0.00000000    
  -8.8346253954367487E-002  0.39261675241954486        0.00000000    
 -0.11111521126772317       0.39060392617721096        0.00000000    
 -0.12769775105777845       0.38510686938704602        0.00000000    
 -0.13587197619795960       0.37297912893583562        0.00000000    
 -0.13391249280330578       0.34970028328208147        0.00000000    
 -0.12072334552502988       0.30893256847708023        0.00000000    
  -9.8421937794221065E-002  0.24339064314590381        0.00000000    
  -7.3449144814195455E-002  0.14866974753623377        0.00000000    
  -5.6414024205878842E-002   2.9293308030867646E-002   0.00000000    
  -5.7604545719909542E-002  -9.4760772577162866E-002   0.00000000    
  -7.5708737601206166E-002 -0.19551117740627036        0.00000000    
  -9.5132871099366079E-002 -0.26080605806564777        0.00000000    
 -0.11032210374011460      -0.30261552487844412        0.00000000    
 -0.12574601898015028      -0.32136022803265823        0.00000000    
 -0.13485692473955138      -0.31796217395395832        0.00000000    
 -0.13302111928760890      -0.30529808341985898        0.00000000    
 -0.12759085808062742      -0.29311274354334754        0.00000000    
 -0.11769164708276794      -0.27873394513648775        0.00000000    
 -0.10127802156417233      -0.27280933519816669        0.00000000    
  -8.8963470391348581E-002 -0.27531961198360250        0.00000000    
  -7.3218274201004602E-002 -0.27867147872145032        0.00000000    
  -3.6691785076817661E-002 -0.26834633571338923        0.00000000    
   3.2735664462760260E-003 -0.26190401802541735        0.00000000    
   4.3263556532902765E-002 -0.26383005943653576        0.00000000    
   8.3913220991557194E-002 -0.27259881484804260        0.00000000    
  0.10234423293384025      -0.27687800899173604        0.00000000    
  0.11207329415852854      -0.27793398388567681        0.00000000    
  0.12548317910549744      -0.28407967513277904        0.00000000    
  0.13385399825503169      -0.29700345291326902        0.00000000    
  0.13757157370259776      -0.30886351633009740        0.00000000    
  0.13720077358670121      -0.31950834115467319        0.00000000    
  0.12669746192612882      -0.32000914381997075        0.00000000    
  0.11114680380663207      -0.29772766072392298        0.00000000    
   9.7234761598517613E-002 -0.25547692647694681        0.00000000    
   7.8055160432651705E-002 -0.19225615381201794        0.00000000    
   5.9011805272762362E-002  -9.4532040007128990E-002   0.00000000    
   5.6388005921675963E-002   2.7820576522090169E-002   0.00000000    
   7.2602204040700405E-002  0.14598605699909656        0.00000000    
   9.6592932705438464E-002  0.24033600153375975        0.00000000    
  0.11862951453307539       0.30646462305281608        0.00000000    
  0.13195260812787124       0.34776738819385339        0.00000000    
  0.13429572725781802       0.37153398681810512        0.00000000    
  0.12644608505355442       0.38386927292765999        0.00000000    
  0.11020577410456536       0.38959181623974420        0.00000000    
   8.7702619949459770E-002  0.39163078350831471        0.00000000    
   6.0761504385204390E-002  0.39201670750383877        0.00000000    
   3.1052904856401671E-002  0.39181885517102677        0.00000000    
   0.0000000000000000       0.39171339083673756        0.00000000    
   0.0000000000000000       0.41821758796519604        0.00000000    
  -1.9306983768224768E-002  0.41764657906950475        0.00000000    
  -3.7223168050187529E-002  0.41582222850361028        0.00000000    
  -5.2274071836969881E-002  0.41192842122051271        0.00000000    
  -6.3008932240903898E-002  0.40479607509338134        0.00000000    
  -6.7824381618394797E-002  0.39231270963835074        0.00000000    
  -6.5509366166350946E-002  0.37163249837248380        0.00000000    
  -5.5239341618341771E-002  0.33881740590271980        0.00000000    
  -3.7948708940523233E-002  0.28933566590012211        0.00000000    
  -1.6745418220432892E-002  0.21948284727194542        0.00000000    
   2.1663076950170258E-003  0.12869302451445636        0.00000000    
   1.0865452979187670E-002   2.3535765160222509E-002   0.00000000    
   4.7356000205945941E-003  -8.1682855234121360E-002   0.00000000    
  -1.3563555712332540E-002 -0.17218574713483945        0.00000000    
  -3.8220035928141202E-002 -0.24005087462323579        0.00000000    
  -6.3204764714120953E-002 -0.28319674689371488        0.00000000    
  -8.3462378554093261E-002 -0.30509747693744094        0.00000000    
  -9.7202561783722941E-002 -0.31137383605970115        0.00000000    
 -0.10375082268266494      -0.30717396586713830        0.00000000    
 -0.10204709929748619      -0.29837084568780398        0.00000000    
  -9.4042082457796022E-002 -0.29138007082955669        0.00000000    
  -8.2910240205991151E-002 -0.28770867727510979        0.00000000    
  -6.7424037713404897E-002 -0.28822102357203361        0.00000000    
  -4.9657906082520818E-002 -0.29928139495392569        0.00000000    
  -2.9288150151090400E-002 -0.30463266453640575        0.00000000    
   3.0468339305820594E-003 -0.29791802480678786        0.00000000    
   3.6531062746104015E-002 -0.30129027155720639        0.00000000    
   5.8569675905374603E-002 -0.29782688034492028        0.00000000    
   7.6954569517465682E-002 -0.28846584904908307        0.00000000    
   9.1246953524373037E-002 -0.29036758905972865        0.00000000    
  0.10065644884818897      -0.29446545022927867        0.00000000    
  0.10682852847002582      -0.30116057658796924        0.00000000    
  0.10706808325408576      -0.30866352288675192        0.00000000    
   9.9206828207274625E-002 -0.31147627943517847        0.00000000    
   8.4562679973361907E-002 -0.30289374564469751        0.00000000    
   6.4557334571979610E-002 -0.27928705537821552        0.00000000    
   4.0176527402406119E-002 -0.23562468244472148        0.00000000    
   1.6149436968932996E-002 -0.16890170624487147        0.00000000    
  -2.3809431256059514E-003  -8.0312752319749006E-002   0.00000000    
  -9.1789198758859998E-003   2.3023064935990156E-002   0.00000000    
  -1.5592599716728996E-003  0.12694971056190660        0.00000000    
   1.6605345097857806E-002  0.21721701423652828        0.00000000    
   3.7157871501062339E-002  0.28699450211910271        0.00000000    
   5.4256229104956720E-002  0.33681605792872588        0.00000000    
   6.4504991193105404E-002  0.36989343586502677        0.00000000    
   6.6985207670466465E-002  0.39087924960750492        0.00000000    
   6.2324383286337846E-002  0.40348297489290846        0.00000000    
   5.1785057269055822E-002  0.41078210502741480        0.00000000    
   3.6899330375611578E-002  0.41469222844233022        0.00000000    
   1.9150589431423858E-002  0.41660067470541062        0.00000000    
   0.0000000000000000       0.41713506559006924        0.00000000    
   0.0000000000000000       0.43262280732790970        0.00000000    
  -8.8840743992959596E-003  0.43143241787419778        0.00000000    
  -1.6465038584806229E-002  0.42753353816629608        0.00000000    
  -2.1493968729465348E-002  0.42029694548913260        0.00000000    
  -2.2709992468695209E-002  0.40837843496785076        0.00000000    
  -1.9159796398022327E-002  0.38999560307053815        0.00000000    
  -1.0163428677391279E-002  0.36263822176756932        0.00000000    
   3.9266521574871345E-003  0.32345157712455619        0.00000000    
   2.1604935650420445E-002  0.26973257850751414        0.00000000    
   3.9455255063008503E-002  0.20003232453165953        0.00000000    
   5.2664425506919313E-002  0.11602265089542034        0.00000000    
   5.6539550177907377E-002   2.3631868823888319E-002   0.00000000    
   4.8892993260665304E-002  -6.8002549021804679E-002   0.00000000    
   3.0743106266181014E-002 -0.14941701061990606        0.00000000    
   6.3069888213409643E-003 -0.21372701347724055        0.00000000    
  -1.9322320241954644E-002 -0.25890657019053148        0.00000000    