 <VTKFile type="UnstructuredGrid" version="0.1" byte_order="BigEndian">
 <UnstructuredGrid>
 <Piece NumberOfPoints="        2601 " NumberOfCells="        2500 ">
 <PointData Scalars="scalars">
 <DataArray type="Float32" NumberOfComponents="3" Name="Velocity" Format="ascii">
   0.0000000000000000        0.0000000000000000        0.00000000    
  -8.0935092629469491E-002   0.0000000000000000        0.00000000    
 -0.16093696223680587        0.0000000000000000        0.00000000    
 -0.23903873179799551        0.0000000000000000        0.00000000    
 -0.31433454190741728        0.0000000000000000        0.00000000    
 -0.38581890663543278        0.0000000000000000        0.00000000    
 -0.45261466691617708        0.0000000000000000        0.00000000    
 -0.51368348102823402        0.0000000000000000        0.00000000    
 -0.56819455031739097        0.0000000000000000        0.00000000    
 -0.61510288792735723        0.0000000000000000        0.00000000    
 -0.65366597175552554        0.0000000000000000        0.00000000    
 -0.68288792006855947        0.0000000000000000        0.00000000    
 -0.70218595759209801        0.0000000000000000        0.00000000    
 -0.71070420341657514        0.0000000000000000        0.00000000    
 -0.70811969062820335        0.0000000000000000        0.00000000    
 -0.69383995540369126        0.0000000000000000        0.00000000    
 -0.66791847930420112        0.0000000000000000        0.00000000    
 -0.63016582111712238        0.0000000000000000        0.00000000    
 -0.58111861279717125        0.0000000000000000        0.00000000    
 -0.52111345880918336        0.0000000000000000        0.00000000    
 -0.45122797909621976        0.0000000000000000        0.00000000    
 -0.37238698749473753        0.0000000000000000        0.00000000    
 -0.28617818940426720        0.0000000000000000        0.00000000    
 -0.19407550265384088        0.0000000000000000        0.00000000    
  -9.8035541984877739E-002   0.0000000000000000        0.00000000    
   7.4162746742994343E-005   0.0000000000000000        0.00000000    
   9.8165029650903068E-002   0.0000000000000000        0.00000000    
  0.19422265550320808        0.0000000000000000        0.00000000    
  0.28630609607153429        0.0000000000000000        0.00000000    
  0.37253089764655767        0.0000000000000000        0.00000000    
  0.45135310898089187        0.0000000000000000        0.00000000    
  0.52125262750586476        0.0000000000000000        0.00000000    
  0.58124012840515382        0.0000000000000000        0.00000000    
  0.63029910081750806        0.0000000000000000        0.00000000    
  0.66803545308463508        0.0000000000000000        0.00000000    
  0.69396602244506678        0.0000000000000000        0.00000000    
  0.70823061222009742        0.0000000000000000        0.00000000    
  0.71082116020236752        0.0000000000000000        0.00000000    
  0.70228855236598242        0.0000000000000000        0.00000000    
  0.68299326833891616        0.0000000000000000        0.00000000    
  0.65375740836044005        0.0000000000000000        0.00000000    
  0.61519382430807146        0.0000000000000000        0.00000000    
  0.56827186179981992        0.0000000000000000        0.00000000    
  0.51375729886771615        0.0000000000000000        0.00000000    
  0.45267516257489998        0.0000000000000000        0.00000000    
  0.38587331981004125        0.0000000000000000        0.00000000    
  0.31437608327043526        0.0000000000000000        0.00000000    
  0.23907205627986022        0.0000000000000000        0.00000000    
  0.16095809690426105        0.0000000000000000        0.00000000    
   8.0946313338419965E-002   0.0000000000000000        0.00000000    
   0.0000000000000000        0.0000000000000000        0.00000000    
   0.0000000000000000        8.1215321883482364E-002   0.00000000    
  -8.1020760351338789E-002   8.0741981384075484E-002   0.00000000    
 -0.16109625772439623        7.9336835729218874E-002   0.00000000    
 -0.23931102748118760        7.6981153410172962E-002   0.00000000    
 -0.31468248117134934        7.3687559753981863E-002   0.00000000    
 -0.38632062850585797        6.9436401059550540E-002   0.00000000    
 -0.45320387588154437        6.4244054602753550E-002   0.00000000    
 -0.51447535347685858        5.8097684214862631E-002   0.00000000    
 -0.56908820800083748        5.1027685701388714E-002   0.00000000    
 -0.61624679418932393        4.3040683055241703E-002   0.00000000    
 -0.65491792701679108        3.4194977329703322E-002   0.00000000    
 -0.68442292946287586        2.4533415812668994E-002   0.00000000    
 -0.70381457482963428        1.4157708066948733E-002   0.00000000    
 -0.71261770791851431        3.1651103545960791E-003   0.00000000    
 -0.71007949448657903       -8.2863985510259301E-003   0.00000000    
 -0.69604033351156602       -2.0031061155999789E-002   0.00000000    
 -0.67007816288114097       -3.1851150563990488E-002   0.00000000    
 -0.63246771001354218       -4.3510526960770263E-002   0.00000000    
 -0.58325766806942403       -5.4745291148819493E-002   0.00000000    
 -0.52324865350097149       -6.5267446569678478E-002   0.00000000    
 -0.45306311967669960       -7.4802137287803119E-002   0.00000000    
 -0.37404893006433459       -8.3051615287831851E-002   0.00000000    
 -0.28742148595827999       -8.9783199109263828E-002   0.00000000    
 -0.19499155508091573       -9.4747991389385583E-002   0.00000000    
  -9.8470154836474033E-002  -9.7811942834758289E-002   0.00000000    
   6.5564097991788482E-005  -9.8832054375396272E-002   0.00000000    
   9.8619683905024388E-002  -9.7811505877208799E-002   0.00000000    
  0.19512179158152823       -9.4746800965931660E-002   0.00000000    
  0.28756859828542108       -8.9782019175522323E-002   0.00000000    
  0.37417675331505046       -8.3049509634082447E-002   0.00000000    
  0.45320594972277456       -7.4800469469195066E-002   0.00000000    
  0.52337305425808422       -6.5264723916311038E-002   0.00000000    
  0.58339495178478828       -5.4743243672172287E-002   0.00000000    
  0.63258790400597631       -4.3507248812254776E-002   0.00000000    
  0.67020877362721620       -3.1848539547505106E-002   0.00000000    
  0.69615518726800119       -2.0027008449327539E-002   0.00000000    
  0.71020188475280321       -8.2828423200228228E-003   0.00000000    
  0.71272534186887204        3.1702752400340106E-003   0.00000000    
  0.70392653904189317        1.4162574928973779E-002   0.00000000    
  0.68452074657805406        2.4539942545886952E-002   0.00000000    
  0.65501676995061775        3.4201336440368345E-002   0.00000000    
  0.61633184025901200        4.3048621027810208E-002   0.00000000    
  0.56917113708732148        5.1035489607153026E-002   0.00000000    
  0.51454476762649326        5.8106888884096007E-002   0.00000000    
  0.45326838351151572        6.4253078630618146E-002   0.00000000    
  0.38637199332692174        6.9446602320222039E-002   0.00000000    
  0.31472659411082338        7.3697482183032126E-002   0.00000000    
  0.23934256222480838        7.6992026053931920E-002   0.00000000    
  0.16111864555809818        7.9347299806195593E-002   0.00000000    
   8.1031390959051305E-002   8.0753188487640973E-002   0.00000000    
   0.0000000000000000        8.1225966092827936E-002   0.00000000    
   0.0000000000000000       0.16258082345749988        0.00000000    
  -8.1255234811589264E-002  0.16165386354299560        0.00000000    
 -0.16159256214688356       0.15883916668874168        0.00000000    
 -0.24006018883069488       0.15416260699743736        0.00000000    
 -0.31576487163678102       0.14758363029379820        0.00000000    
 -0.38771277392013120       0.13912776717002739        0.00000000    
 -0.45503362996396474       0.12875817816730475        0.00000000    
 -0.51669353197789469       0.11651632564211414        0.00000000    
 -0.57185962683162250       0.10238937798107921        0.00000000    
 -0.61947988776863616        8.6459221115284132E-002   0.00000000    
 -0.65879783919362611        6.8766905445921372E-002   0.00000000    
 -0.68879523337672910        4.9465264939964157E-002   0.00000000    
 -0.70886209985623061        2.8685749929247783E-002   0.00000000    
 -0.71810335834968997        6.6828377789042463E-003   0.00000000    
 -0.71615800917976813       -1.6286312448219025E-002   0.00000000    
 -0.70238112701638589       -3.9845815753895591E-002   0.00000000    
 -0.67678558846230497       -6.3592732090626103E-002   0.00000000    
 -0.63912709794929956       -8.7036517188008006E-002   0.00000000    
 -0.58991340884066390      -0.10964166182629596        0.00000000    
 -0.52944132699627577      -0.13085080342896199        0.00000000    
 -0.45878777019727540      -0.15005650342954260        0.00000000    
 -0.37887114149593482      -0.16672670084026606        0.00000000    
 -0.29131711861965204      -0.18028821483499649        0.00000000    
 -0.19763624776290517      -0.19035241233418138        0.00000000    
  -9.9858014100177264E-002 -0.19650579122067574        0.00000000    
   7.7236473877877684E-005 -0.19860781113685752        0.00000000    
   9.9993207467110434E-002 -0.19650447556383802        0.00000000    
  0.19778922680625260      -0.19035059371058816        0.00000000    
  0.29145018481763152      -0.18028462609223891        0.00000000    
  0.37902007822274386      -0.16672358544137358        0.00000000    
  0.45891723895801523      -0.15005138419539552        0.00000000    
  0.52958459022391524      -0.13084689736400462        0.00000000    
  0.59003847448599767      -0.10963548314720245        0.00000000    
  0.63926366643424293       -8.7031783355072043E-002   0.00000000    
  0.67690548884275781       -6.3585325417410840E-002   0.00000000    
  0.70250985298920787       -3.9839627304560289E-002   0.00000000    
  0.71627135053351965       -1.6277043859734639E-002   0.00000000    
  0.71822243995248247        6.6913063745632434E-003   0.00000000    
  0.70896663527601578        2.8697528993748798E-002   0.00000000    
  0.68890219865530877        4.9476596708829472E-002   0.00000000    
  0.65889073273692544        6.8781505429976270E-002   0.00000000    
  0.61957195978222668        8.6473536607298604E-002   0.00000000    
  0.57193793963905093       0.10240668055000492        0.00000000    
  0.51676807015407134       0.11653332121457750        0.00000000    
  0.45509474568612995       0.12877774025966104        0.00000000    
  0.38776759188255094       0.13914687093255548        0.00000000    
  0.31580675088230747       0.14760484081426767        0.00000000    
  0.24009370571387048       0.15418313210513671        0.00000000    
  0.16161384018169958       0.15886136405552223        0.00000000    
   8.1266510526454255E-002  0.16167509689932261        0.00000000    
   0.0000000000000000       0.16260334773273252        0.00000000    
   0.0000000000000000       0.24426474518445571        0.00000000    
  -8.1634064764023309E-002  0.24286056839801615        0.00000000    
 -0.16235436726851810       0.23869141852753464        0.00000000    
 -0.24127445488272345       0.23169939598250175        0.00000000    
 -0.31743984843422318       0.22191824373956112        0.00000000    
 -0.38998133602329293       0.20928386902175594        0.00000000    
 -0.45789521970309960       0.19383814072526773        0.00000000    
 -0.52033095536816931       0.17553332449885886        0.00000000    
 -0.57624123159195551       0.15445007293704266        0.00000000    
 -0.62481579052850611       0.13059466754569415        0.00000000    
 -0.66499397169664487       0.10412891189795283        0.00000000    
 -0.69605648981854729        7.5164489633910619E-002   0.00000000    
 -0.71699515670120240        4.3993376046817634E-002   0.00000000    
 -0.72726815741278328        1.0890786707296434E-002   0.00000000    
 -0.72602885507355364       -2.3677598531247467E-002   0.00000000    
 -0.71303471748359570       -5.9224236749928258E-002   0.00000000    
 -0.68775060716211256       -9.5092648785249506E-002   0.00000000    
 -0.65037501254671626      -0.13056937607858357        0.00000000    
 -0.60085358511834119      -0.16484261131512143        0.00000000    
 -0.53995071466182565      -0.19702349955994192        0.00000000    
 -0.46823512852254889      -0.22625164472435982        0.00000000    
 -0.38708953363799881      -0.25159247879959662        0.00000000    
 -0.29775751724959354      -0.27230717265388737        0.00000000    
 -0.20216544716403137      -0.28760509274001417        0.00000000    
 -0.10213961483262013      -0.29705587452980908        0.00000000    
   7.1463338824080653E-005 -0.30020275457005480        0.00000000    
  0.10230150948906074      -0.29705424725656365        0.00000000    
  0.20230685049054334      -0.28760088009455809        0.00000000    
  0.29791571413728679      -0.27230285863584880        0.00000000    
  0.38722697354068419      -0.25158520223532660        0.00000000    
  0.46838711955799278      -0.22624576981117098        0.00000000    
  0.54008297904707470      -0.19701441700596897        0.00000000    
  0.60099818669870553      -0.16483574872883092        0.00000000    
  0.65050161295942177      -0.13055882783928671        0.00000000    
  0.68788708577363977       -9.5084266605824655E-002   0.00000000    
  0.71315485960695324       -5.9211512924400495E-002   0.00000000    
  0.72615596493583945       -2.3666448433898066E-002   0.00000000    
  0.72738010236617734        1.0906798441857815E-002   0.00000000    
  0.71711079663655231        4.4008463176624005E-002   0.00000000    
  0.69615764056825624        7.5184572653651860E-002   0.00000000    
  0.66509548410586350       0.10414847070855172        0.00000000    
  0.62490320985034153       0.13061893881901301        0.00000000    
  0.57632591956941881       0.15447391027556950        0.00000000    
  0.52040189746979471       0.17556130580092169        0.00000000    
  0.45796075862369656       0.19386554272233636        0.00000000    
  0.39003357594829652       0.20931472962827111        0.00000000    
  0.31748448536116469       0.22194823912929224        0.00000000    
  0.24130641498830471       0.23173217539914504        0.00000000    
  0.16237696317870881       0.23872296462649772        0.00000000    
   8.1644819220807796E-002  0.24289429679103794        0.00000000    
   0.0000000000000000       0.24429680459111100        0.00000000    
   0.0000000000000000       0.32634572644348725        0.00000000    
  -8.2108350600964192E-002  0.32452326811176146        0.00000000    
 -0.16334601820340797       0.31898795435829269        0.00000000    
 -0.24280806675913200       0.30978626145378740        0.00000000    
 -0.31964066749245712       0.29683063717797387        0.00000000    
 -0.39288745045564399       0.28016101015783301        0.00000000    
 -0.46170111777471051       0.25968981377713563        0.00000000    
 -0.52506480575329906       0.23548233739762825        0.00000000    
 -0.58214250216420216       0.20749029384197942        0.00000000    
 -0.63186570530294728       0.17585346875305849        0.00000000    
 -0.67343903711832553       0.14062288230328718        0.00000000    
 -0.70578134303094742       0.10207660055478726        0.00000000    
 -0.72820226064327609        6.0442105288496868E-002   0.00000000    
 -0.73969033235957093        1.6204384080651772E-002   0.00000000    
 -0.73976761763388288       -3.0151960545710604E-002   0.00000000    
 -0.72762716043756537       -7.7883218638413826E-002   0.00000000    
 -0.70315177256076822      -0.12619191601068366        0.00000000    
 -0.66592094034787852      -0.17407528809516706        0.00000000    
 -0.61634393014950506      -0.22043389104485200        0.00000000    
 -0.55458271573527818      -0.26409506015959311        0.00000000    
 -0.48170261986440438      -0.30377452306118896        0.00000000    
 -0.39859139673107691      -0.33832517646769950        0.00000000    
 -0.30698886964398447      -0.36650777753440011        0.00000000    
 -0.20851593396387363      -0.38746825337536928        0.00000000    
 -0.10543323502937914      -0.40030000549752898        0.00000000    
   8.6969487935152461E-005 -0.40468866684892929        0.00000000    
  0.10558645956143468      -0.40029663178021313        0.00000000    
  0.20868721867887211      -0.38746335600730991        0.00000000    
  0.30713799690741195      -0.36649878436994882        0.00000000    
  0.39875580801979060      -0.33831710607244803        0.00000000    
  0.48184528332972326      -0.30376224530933266        0.00000000    
  0.55473828826002913      -0.26408556283839557        0.00000000    
  0.61647957845793522      -0.22041985622449733        0.00000000    
  0.66606722948462915      -0.17406455173825069        0.00000000    
  0.70328030056218260      -0.12617583903069754        0.00000000    
  0.72776366759822175       -7.7869832274925388E-002   0.00000000    
  0.73988803599413100       -3.0132351941265120E-002   0.00000000    
  0.73981555773250562        1.6222295211387690E-002   0.00000000    
  0.72831238706665968        6.0466696975363173E-002   0.00000000    
  0.70589288285769780       0.10210025480458522        0.00000000    
  0.67353602229118059       0.14065306286592058        0.00000000    
  0.63196087785518706       0.17588302398526975        0.00000000    
  0.58222352331073468       0.20752572996136665        0.00000000    
  0.52514121048077012       0.23551708221500764        0.00000000    
  0.46176382960974011       0.25972954832384165        0.00000000    
  0.39294324426200061       0.28019975523880103        0.00000000    
  0.31968336526489960       0.29687344711834840        0.00000000    
  0.24284200737009809       0.30982766030112269        0.00000000    
  0.16336762444430072       0.31903257958662334        0.00000000    
   8.2119738893013328E-002  0.32456597677489363        0.00000000    
   0.0000000000000000       0.32639094832481369        0.00000000    
   0.0000000000000000       0.40895553857175199        0.00000000    
  -8.2646317828844615E-002  0.40666932877623968        0.00000000    
 -0.16444439097567889       0.39987883865092794        0.00000000    
 -0.24456829703941207       0.38848253563572982        0.00000000    
 -0.32212358063250829       0.37252345071580839        0.00000000    
 -0.39628621930934754       0.35187882095348616        0.00000000    
 -0.46609442280716051       0.32659507573464608        0.00000000    
 -0.53071562205318701       0.29656316356677914        0.00000000    
 -0.58911020942031389       0.26188295132124634        0.00000000    
 -0.64044512368997142       0.22252012720769868        0.00000000    
 -0.68361441664862110       0.17870004587580285        0.00000000    
 -0.71782270023567762       0.13055122211938927        0.00000000    
 -0.74194670904347682        7.8513604318970212E-002   0.00000000    
 -0.75531082248010206        2.2986262554051465E-002   0.00000000    
 -0.75687884790360482       -3.5287337551481938E-002   0.00000000    
 -0.74623175597747327       -9.5534201926005965E-002   0.00000000    
 -0.72259219895002835      -0.15665469040326360        0.00000000    
 -0.68598475729342789      -0.21744960228120236        0.00000000    
 -0.63611972517355975      -0.27650043539857461        0.00000000    
 -0.57366459864882047      -0.33224367473827338        0.00000000    
 -0.49904981543531085      -0.38311960685002361        0.00000000    
 -0.41371575291867679      -0.42742419905355139        0.00000000    
 -0.31894857680720468      -0.46377727981114453        0.00000000    
 -0.21691910133514550      -0.49069998486786981        0.00000000    
 -0.10969924381707898      -0.50736965355997721        0.00000000    
   8.4276916700064481E-005 -0.51292156748992834        0.00000000    
  0.10988790945716301      -0.50736567717885350        0.00000000    
  0.21708445473086482      -0.49069043812970398        0.00000000    
  0.31913021331834818      -0.46376706165591497        0.00000000    
  0.41387316085501968      -0.42740840912678951        0.00000000    
  0.49922047622917731      -0.38310655364191498        0.00000000    
  0.57381261376308879      -0.33222521627913176        0.00000000    
  0.63627875923291011      -0.27648645642642744        0.00000000    
  0.68612389917242489      -0.21742955874801453        0.00000000    
  0.72274004003443848      -0.15663885865466570        0.00000000    
  0.74636213156531539       -9.5511084015278677E-002   0.00000000    
  0.75701496280814096       -3.5267110998961272E-002   0.00000000    
  0.75543096848306435        2.3014717606864160E-002   0.00000000    
  0.74206917710802245        7.8540428980318780E-002   0.00000000    
  0.71792998201007885       0.13058641626552062        0.00000000    
  0.68372065320817066       0.17873428641682537        0.00000000    
  0.64053668015268739       0.22256211516566146        0.00000000    
  0.58919778266568579       0.26192408934165134        0.00000000    
  0.53078903266937638       0.29661098552051757        0.00000000    
  0.46616147061032087       0.32664178885221146        0.00000000    
  0.39633973648230375       0.35193103611380178        0.00000000    
  0.32216886540834688       0.37257411900785065        0.00000000    
  0.24460080584792673       0.38853760925349412        0.00000000    
  0.16446719451317493       0.39993182874826028        0.00000000    
   8.2657216893268909E-002  0.40672579498735922        0.00000000    
   0.0000000000000000       0.40900929025829402        0.00000000    
   0.0000000000000000       0.49204958753171235        0.00000000    
  -8.3173981487578125E-002  0.48939672242777527        0.00000000    
 -0.16555943230078304       0.48133611207074029        0.00000000    
 -0.24633404153022356       0.46792492030545557        0.00000000    
 -0.32471416634339834       0.44901761669908846        0.00000000    
 -0.39981358462044964       0.42464785354680806        0.00000000    
 -0.47083043807102343       0.39465224080287675        0.00000000    
 -0.53678847800809437       0.35908637747485733        0.00000000    
 -0.59685656091858585       0.31782354622771697        0.00000000    
 -0.64995485060547165       0.27101387360212509        0.00000000    
 -0.69523409481771015       0.21865597241915408        0.00000000    
 -0.73152430024286252       0.16109491892771219        0.00000000    
 -0.75800728773764892        9.8578036299348637E-002   0.00000000    
 -0.77348502353890913        3.1764810693036133E-002   0.00000000    
 -0.77727758416365211       -3.8704170815905721E-002   0.00000000    
 -0.76829550380509626      -0.11174541381897803        0.00000000    
 -0.74617785561571193      -0.18619955874526409        0.00000000    
 -0.71017137013970277      -0.26051753777241760        0.00000000    
 -0.66047844954175361      -0.33298933140832965        0.00000000    
 -0.59697964603938336      -0.40170758906871318        0.00000000    
 -0.52068368377153329      -0.46456532014564178        0.00000000    
 -0.43238175868813089      -0.51961335673171583        0.00000000    
 -0.33400168534107399      -0.56473425634626118        0.00000000    
 -0.22734671677932264      -0.59842633791169464        0.00000000    
 -0.11510836981232390      -0.61910039130447980        0.00000000    
   1.0512333703552991E-004 -0.62618673018495008        0.00000000    
  0.11529507563667665      -0.61909298591413386        0.00000000    
  0.22755154345397086      -0.59841502875642427        0.00000000    
  0.33417962785730837      -0.56471519959904082        0.00000000    
  0.43257324770797195      -0.51959572329641812        0.00000000    
  0.52084881110920200      -0.46454100165406204        0.00000000    
  0.59715565895848766      -0.40168863576945263        0.00000000    
  0.66063137260475024      -0.33296377639560859        0.00000000    
  0.71033326314304246      -0.26049814801870674        0.00000000    
  0.74632020156009549      -0.18617222539093908        0.00000000    
  0.76844427774513124      -0.11172275999624644        0.00000000    
  0.77740914737354627       -3.8672008785794888E-002   0.00000000    
  0.77361966330207155        3.1794222629490616E-002   0.00000000    
  0.75812589101147321        9.8617618484504288E-002   0.00000000    
  0.73164245495086977       0.16113299041552673        0.00000000    
  0.69533687304869762       0.21870375729348102        0.00000000    
  0.65005408166535983       0.27106054450131767        0.00000000    
  0.59694103449730962       0.31787874199167293        0.00000000    
  0.53686695588403199       0.35914030002107866        0.00000000    
  0.47089488929031548       0.39471324278673681        0.00000000    
  0.39987018475092784       0.42470716156167260        0.00000000    
  0.32475756690232738       0.44908262409686200        0.00000000    
  0.24636817296330651       0.46798769991044487        0.00000000    
  0.16558124381418909       0.48140342136539577        0.00000000    
   8.3185382432474780E-002  0.48946118448099651        0.00000000    
   0.0000000000000000       0.49211764338137265        0.00000000    
   0.0000000000000000       0.57566881413014703        0.00000000    
  -8.3632747757601072E-002  0.57258530745989444        0.00000000    
 -0.16652016602319658       0.56342147834157186        0.00000000    
 -0.24793183163235966       0.54802691071503384        0.00000000    
 -0.32707124601867243       0.52643624684911361        0.00000000    
 -0.40318996205106189       0.49844843830277530        0.00000000    
 -0.47540318825779099       0.46408281550530267        0.00000000    
 -0.54291807597470199       0.42312980908701631        0.00000000    
 -0.60472819124895028       0.37565939036538304        0.00000000    
 -0.65998330604534428       0.32153251000730726        0.00000000    
 -0.70753610615569518       0.26097045502537508        0.00000000    
 -0.74649311220805414       0.19402872064404769        0.00000000    
 -0.77558107311781854       0.12121625422853657        0.00000000    
 -0.79392760959563691        4.2951934153952868E-002   0.00000000    
 -0.80021473607664972       -3.9810539830888794E-002   0.00000000    
 -0.79373619879751744      -0.12609859742748869        0.00000000    
 -0.77331563793499414      -0.21438352101355643        0.00000000    
 -0.73866118995322672      -0.30299344816862983        0.00000000    
 -0.68905191778886887      -0.38981455475450871        0.00000000    
 -0.62493876042029695      -0.47249326981679696        0.00000000    
 -0.54645275681174121      -0.54856055004157545        0.00000000    
 -0.45507955010640944      -0.61529220526182993        0.00000000    
 -0.35212113920196414      -0.67039283984785969        0.00000000    
 -0.24014814504010273      -0.71139466617360447        0.00000000    
 -0.12163990881318607      -0.73687759587038371        0.00000000    
   1.0650136727226706E-004 -0.74536837905258613        0.00000000    
  0.12187470533045444      -0.73686844337290336        0.00000000    
  0.24035401605424525      -0.71137429951356146        0.00000000    
  0.35234133676889506      -0.67037028296231260        0.00000000    
  0.45526864610674284      -0.61526051694178885        0.00000000    
  0.54665199327517189      -0.54853406518243075        0.00000000    
  0.62511012691853751      -0.47245949853880109        0.00000000    
  0.68923178469373636      -0.38978922824295320        0.00000000    
  0.73881828159361562      -0.30296002462355515        0.00000000    
  0.77347944929681756      -0.21435739409027499        0.00000000    
  0.79388098977306232      -0.12606214481287562        0.00000000    
  0.80036317617513686       -3.9778614967560362E-002   0.00000000    
  0.79405887880410964        4.2995677568528054E-002   0.00000000    
  0.77571230965860316       0.12125757410621164        0.00000000    
  0.74660806302641536       0.19408178870646339        0.00000000    
  0.70764770664094512       0.26102197014516748        0.00000000    
  0.66007937294169072       0.32159453140389149        0.00000000    
  0.60481837633954383       0.37571987492564013        0.00000000    
  0.54299361912779864       0.42319908046363014        0.00000000    
  0.47547104869835372       0.46415017803196895        0.00000000    
  0.40324417000154511       0.49852288934326533        0.00000000    
  0.32711648056873754       0.52650828419478291        0.00000000    
  0.24796440133767242       0.54810459433501602        0.00000000    
  0.16654276004669963       0.56349617922198769        0.00000000    
   8.3643606428965150E-002  0.57266452384275657        0.00000000    
   0.0000000000000000       0.57574437526346667        0.00000000    
   0.0000000000000000       0.65959828307071278        0.00000000    
  -8.3926843422788389E-002  0.65621645136664475        0.00000000    
 -0.16718459586704587       0.64593652661286338        0.00000000    
 -0.24907325099609723       0.62881320432019161        0.00000000    
 -0.32891428374333570       0.60463142091849775        0.00000000    
 -0.40593321457368908       0.57339193097928665        0.00000000    
 -0.47940493414237845       0.53482528748952518        0.00000000    
 -0.54843422401566100       0.48893253259827257        0.00000000    
 -0.61221790503463658       0.43545147965435144        0.00000000    
 -0.66969560937846362       0.37447425507604992        0.00000000    
 -0.71996895672153360       0.30585587083750543        0.00000000    
 -0.76178372052749432       0.22991608654418333        0.00000000    
 -0.79416345181604275       0.14679759022643463        0.00000000    
 -0.81567667597195204        5.7231366678783244E-002   0.00000000    
 -0.82535578324640135       -3.8122733168303245E-002   0.00000000    
 -0.82170310235307886      -0.13791661879958864        0.00000000    