 <VTKFile type="UnstructuredGrid" version="0.1" byte_order="BigEndian">
 <UnstructuredGrid>
 <Piece NumberOfPoints="        2601 " NumberOfCells="        2500 ">
 <PointData Scalars="scalars">
 <DataArray type="Float32" NumberOfComponents="3" Name="Velocity" Format="ascii">
   0.0000000000000000        0.0000000000000000        0.00000000    
  -3.7102608747286339E-002   0.0000000000000000        0.00000000    
  -7.3677850528036520E-002   0.0000000000000000        0.00000000    
 -0.10917138861830947        0.0000000000000000        0.00000000    
 -0.14310451501525356        0.0000000000000000        0.00000000    
 -0.17491963782588787        0.0000000000000000        0.00000000    
 -0.20420747373099404        0.0000000000000000        0.00000000    
 -0.23043384796765981        0.0000000000000000        0.00000000    
 -0.25327952221036809        0.0000000000000000        0.00000000    
 -0.27226363979371393        0.0000000000000000        0.00000000    
 -0.28717748653529734        0.0000000000000000        0.00000000    
 -0.29762583184734698        0.0000000000000000        0.00000000    
 -0.30352972071747103        0.0000000000000000        0.00000000    
 -0.30461207150055547        0.0000000000000000        0.00000000    
 -0.30093935412630846        0.0000000000000000        0.00000000    
 -0.29238181060409663        0.0000000000000000        0.00000000    
 -0.27916009550710863        0.0000000000000000        0.00000000    
 -0.26131305695847845        0.0000000000000000        0.00000000    
 -0.23921366794322124        0.0000000000000000        0.00000000    
 -0.21307808741961848        0.0000000000000000        0.00000000    
 -0.18341598863555286        0.0000000000000000        0.00000000    
 -0.15061329973653828        0.0000000000000000        0.00000000    
 -0.11528564001782224        0.0000000000000000        0.00000000    
  -7.7963464938520813E-002   0.0000000000000000        0.00000000    
  -3.9323710933735642E-002   0.0000000000000000        0.00000000    
   3.6506890316769019E-009   0.0000000000000000        0.00000000    
   3.9323718232854694E-002   0.0000000000000000        0.00000000    
   7.7963472217232890E-002   0.0000000000000000        0.00000000    
  0.11528564714303194        0.0000000000000000        0.00000000    
  0.15061330672151807        0.0000000000000000        0.00000000    
  0.18341599537287173        0.0000000000000000        0.00000000    
  0.21307809401642197        0.0000000000000000        0.00000000    
  0.23921367442060867        0.0000000000000000        0.00000000    
  0.26131306322104147        0.0000000000000000        0.00000000    
  0.27916010135938774        0.0000000000000000        0.00000000    
  0.29238181623216319        0.0000000000000000        0.00000000    
  0.30093935951759687        0.0000000000000000        0.00000000    
  0.30461207640093046        0.0000000000000000        0.00000000    
  0.30352972524960931        0.0000000000000000        0.00000000    
  0.29762583621127953        0.0000000000000000        0.00000000    
  0.28717749047814956        0.0000000000000000        0.00000000    
  0.27226364326651042        0.0000000000000000        0.00000000    
  0.25327952514626711        0.0000000000000000        0.00000000    
  0.23043385041321479        0.0000000000000000        0.00000000    
  0.20420747571304820        0.0000000000000000        0.00000000    
  0.17491963952674583        0.0000000000000000        0.00000000    
  0.14310451640159819        0.0000000000000000        0.00000000    
  0.10917138972702992        0.0000000000000000        0.00000000    
   7.3677851240582709E-002   0.0000000000000000        0.00000000    
   3.7102609105268726E-002   0.0000000000000000        0.00000000    
   0.0000000000000000        0.0000000000000000        0.00000000    
   0.0000000000000000        3.7306360627929441E-002   0.00000000    
  -3.7235729768371806E-002   3.7033588993833258E-002   0.00000000    
  -7.3926827030729711E-002   3.6234361101044207E-002   0.00000000    
 -0.10956683012098524        3.4900791018244663E-002   0.00000000    
 -0.14359532318841467        3.3062439224738123E-002   0.00000000    
 -0.17556494540074127        3.0723916356781972E-002   0.00000000    
 -0.20492447098500685        2.7925055433693464E-002   0.00000000    
 -0.23130615918988454        2.4684616993680911E-002   0.00000000    
 -0.25419624250298661        2.1052750207189958E-002   0.00000000    
 -0.27332719281247980        1.7063926937604730E-002   0.00000000    
 -0.28825407601466968        1.2778411853138485E-002   0.00000000    
 -0.29882975252747235        8.2472183701886668E-003   0.00000000    
 -0.30471114214214640        3.5396680674483938E-003   0.00000000    
 -0.30588954065352447       -1.2773112973969126E-003   0.00000000    
 -0.30215547866471598       -6.1278610493321981E-003   0.00000000    
 -0.29365168967785688       -1.0931864919860137E-002   0.00000000    
 -0.28032862487306187       -1.5611308885884193E-002   0.00000000    
 -0.26248470609973085       -2.0078042784922614E-002   0.00000000    
 -0.24024632336052909       -2.4258123717562110E-002   0.00000000    
 -0.21405941261811406       -2.8062762679942923E-002   0.00000000    
 -0.18422756938781246       -3.1429574793157881E-002   0.00000000    
 -0.15132113919867368       -3.4277940049147859E-002   0.00000000    
 -0.11580462220079935       -3.6564632653856212E-002   0.00000000    
  -7.8334519400001981E-002  -3.8226041398963920E-002   0.00000000    
  -3.9502307776668744E-002  -3.9244320522412578E-002   0.00000000    
   3.6257289935847198E-009  -3.9580101821326999E-002   0.00000000    
   3.9502315029105541E-002  -3.9244320521132338E-002   0.00000000    
   7.8334526592248516E-002  -3.8226041319646686E-002   0.00000000    
  0.11580462928555993       -3.6564632472185055E-002   0.00000000    
  0.15132114605404198       -3.4277939861197114E-002   0.00000000    
  0.18422757610887813       -3.1429574599144770E-002   0.00000000    
  0.21405941917518173       -2.8062762569442526E-002   0.00000000    
  0.24024632971920107       -2.4258123510250480E-002   0.00000000    
  0.26248471226113351       -2.0078042580140187E-002   0.00000000    
  0.28032863092630195       -1.5611308572219812E-002   0.00000000    
  0.29365169537111818       -1.0931864649333068E-002   0.00000000    
  0.30215548390968877       -6.1278606347924362E-003   0.00000000    
  0.30588954555361286       -1.2773108761388206E-003   0.00000000    
  0.30471114666509724        3.5396683915650123E-003   0.00000000    
  0.29882975657616168        8.2472186885395628E-003   0.00000000    
  0.28825407978939577        1.2778412229831334E-002   0.00000000    
  0.27332719617922213        1.7063927438951736E-002   0.00000000    
  0.25419624541289210        2.1052750699577637E-002   0.00000000    
  0.23130616157994105        2.4684617511486453E-002   0.00000000    
  0.20492447298514460        2.7925055769307910E-002   0.00000000    
  0.17556494707040374        3.0723916632839285E-002   0.00000000    
  0.14359532460825672        3.3062439513014887E-002   0.00000000    
  0.10956683119231093        3.4900791356109101E-002   0.00000000    
   7.3926827761002067E-002   3.6234361500407646E-002   0.00000000    
   3.7235730111947918E-002   3.7033589335730067E-002   0.00000000    
   0.0000000000000000        3.7306360987591380E-002   0.00000000    
   0.0000000000000000        7.4862449142697518E-002   0.00000000    
  -3.7617697640522509E-002   7.4332477177694020E-002   0.00000000    
  -7.4704643584198135E-002   7.2715065352779260E-002   0.00000000    
 -0.11070205689525886        7.0059052293056256E-002   0.00000000    
 -0.14512818355876758        6.6360346628717787E-002   0.00000000    
 -0.17741927684639136        6.1688273197392521E-002   0.00000000    
 -0.20716274779494759        5.6065243585327863E-002   0.00000000    
 -0.23381616882236633        4.9581086242480067E-002   0.00000000    
 -0.25705643944777834        4.2288182687394184E-002   0.00000000    
 -0.27639241117724783        3.4296963923433559E-002   0.00000000    
 -0.29161110353318087        2.5692497403488449E-002   0.00000000    
 -0.30230559988961914        1.6604852252210780E-002   0.00000000    
 -0.30839295468550271        7.1523246647703211E-003   0.00000000    
 -0.30958427981409858       -2.5186986278312256E-003   0.00000000    
 -0.30594348849379627       -1.2259781910851737E-002   0.00000000    
 -0.29733067964459969       -2.1914997218719961E-002   0.00000000    
 -0.28396680778409961       -3.1313569069575178E-002   0.00000000    
 -0.26588422922452487       -4.0300736163938949E-002   0.00000000    
 -0.24346037266142556       -4.8696126314234964E-002   0.00000000    
 -0.21691027220627959       -5.6360228310046043E-002   0.00000000    
 -0.18675292086649994       -6.3119761126185364E-002   0.00000000    
 -0.15337941135706315       -6.8866151082023624E-002   0.00000000    
 -0.11741925496231426       -7.3451552939263379E-002   0.00000000    
  -7.9414101685626015E-002  -7.6812835289743420E-002   0.00000000    
  -4.0057907117942583E-002  -7.8844391055451532E-002   0.00000000    
   3.5340092592522237E-009  -7.9538711634577181E-002   0.00000000    
   4.0057914151899250E-002  -7.8844391021088214E-002   0.00000000    
   7.9414108599082198E-002  -7.6812835062818260E-002   0.00000000    
  0.11741926167592787       -7.3451552597871533E-002   0.00000000    
  0.15337941794145410       -6.8866150695179013E-002   0.00000000    
  0.18675292731883913       -6.3119760864711411E-002   0.00000000    
  0.21691027846965744       -5.6360227914046969E-002   0.00000000    
  0.24346037876219193       -4.8696126031414599E-002   0.00000000    
  0.26588423533249333       -4.0300735844597549E-002   0.00000000    
  0.28396681367033261       -3.1313568540571539E-002   0.00000000    
  0.29733068515134020       -2.1914996424060387E-002   0.00000000    
  0.30594349352725886       -1.2259781098877846E-002   0.00000000    
  0.30958428456397474       -2.5186979755360923E-003   0.00000000    
  0.30839295907314451        7.1523254972222748E-003   0.00000000    
  0.30230560381398525        1.6604852999763848E-002   0.00000000    
  0.29161110691855896        2.5692498163930690E-002   0.00000000    
  0.27639241432889117        3.4296964682750078E-002   0.00000000    
  0.25705644228400976        4.2288183694061482E-002   0.00000000    
  0.23381617124173368        4.9581087182719009E-002   0.00000000    
  0.20716274977887841        5.6065244323864560E-002   0.00000000    
  0.17741927852816383        6.1688273703161545E-002   0.00000000    
  0.14512818493863128        6.6360347239012143E-002   0.00000000    
  0.11070205794266116        7.0059052989881632E-002   0.00000000    
   7.4704644316416033E-002   7.2715066049419810E-002   0.00000000    
   3.7617698075195903E-002   7.4332477906554714E-002   0.00000000    
   0.0000000000000000        7.4862449893645350E-002   0.00000000    
   0.0000000000000000       0.11294924106263357        0.00000000    
  -3.8262330925165788E-002  0.11212720134966048        0.00000000    
  -7.5972593010731365E-002  0.10971903668490400        0.00000000    
 -0.11261827654477002       0.10569966515320081        0.00000000    
 -0.14762868743061333       0.10015775851361822        0.00000000    
 -0.18055040639646758        9.3105160512893317E-002   0.00000000    
 -0.21081796530341393        8.4660872828482656E-002   0.00000000    
 -0.23805658537338550        7.4878984443094959E-002   0.00000000    
 -0.26173388648808110        6.3909342250118656E-002   0.00000000    
 -0.28157411961427303        5.1853494794160931E-002   0.00000000    
 -0.29711001859128838        3.8892043058729252E-002   0.00000000    
 -0.30818585235741730        2.5177121403539660E-002   0.00000000    
 -0.31443440629779423        1.0917448509397649E-002   0.00000000    
 -0.31583989555792824       -3.6855243666492790E-003   0.00000000    
 -0.31217005220711519       -1.8402107564355358E-002   0.00000000    
 -0.30356474609698708       -3.2989303788459462E-002   0.00000000    
 -0.28995690691072917       -4.7209491235047481E-002   0.00000000    
 -0.27164922267288366       -6.0793594992023234E-002   0.00000000    
 -0.24875977524445608       -7.3515090056444105E-002   0.00000000    
 -0.22174811317543636       -8.5101546109084811E-002   0.00000000    
 -0.19092159892706398       -9.5360828246632875E-002   0.00000000    
 -0.15687409544011988      -0.10404461662743333        0.00000000    
 -0.12008673627487131      -0.11101912284667935        0.00000000    
  -8.1247709245049399E-002 -0.11608796579512663        0.00000000    
  -4.0976176059713931E-002 -0.11919550852539175        0.00000000    
   3.4136255623116381E-009 -0.12022020458520709        0.00000000    
   4.0976182813913430E-002 -0.11919550838391497        0.00000000    
   8.1247715905586396E-002 -0.11608796546115177        0.00000000    
  0.12008674283282580      -0.11101912230991202        0.00000000    
  0.15687410175494379      -0.10404461606361141        0.00000000    
  0.19092160500621330       -9.5360827794409603E-002   0.00000000    
  0.22174811916135889       -8.5101545621646749E-002   0.00000000    
  0.24875978119380887       -7.3515089665881120E-002   0.00000000    
  0.27164922828695576       -6.0793594452345404E-002   0.00000000    
  0.28995691226749387       -4.7209490447337334E-002   0.00000000    
  0.30356475133925775       -3.2989302758519509E-002   0.00000000    
  0.31217005735254866       -1.8402106417546530E-002   0.00000000    
  0.31583990013900282       -3.6855232012433649E-003   0.00000000    
  0.31443441036707342        1.0917449702768835E-002   0.00000000    
  0.30818585601734266        2.5177122662803239E-002   0.00000000    
  0.29711002194809338        3.8892044149569802E-002   0.00000000    
  0.28157412254242264        5.1853495885469614E-002   0.00000000    
  0.26173388913985868        6.3909343516578052E-002   0.00000000    
  0.23805658782500411        7.4878985740565063E-002   0.00000000    
  0.21081796746974121        8.4660873930516176E-002   0.00000000    
  0.18055040806265088        9.3105161457468166E-002   0.00000000    
  0.14762868872112817       0.10015775936268419        0.00000000    
  0.11261827758904651       0.10569966618995495        0.00000000    
   7.5972593685989132E-002  0.10971903772581922        0.00000000    
   3.8262331212444232E-002  0.11212720241977052        0.00000000    
   0.0000000000000000       0.11294924219428415        0.00000000    
   0.0000000000000000       0.15177701346816205        0.00000000    
  -3.9147533410068110E-002  0.15071071910672618        0.00000000    
  -7.7755023248253258E-002  0.14745469660978891        0.00000000    
 -0.11525116575151319       0.14210725692268925        0.00000000    
 -0.15114585451936410       0.13465669185088841        0.00000000    
 -0.18485749936270648       0.12524101624064668        0.00000000    
 -0.21596417426443465       0.11390067583675566        0.00000000    
 -0.24389898053887382       0.10081403242324107        0.00000000    
 -0.26832748111170573        8.6081520165753225E-002   0.00000000    
 -0.28872747263726800        6.9922965383991384E-002   0.00000000    
 -0.30487300488588148        5.2505427028891341E-002   0.00000000    
 -0.31632137651786796        3.4089365759659658E-002   0.00000000    
 -0.32297706417431987        1.4910868104910581E-002   0.00000000    
 -0.32451451445630708       -4.7345824994690219E-003   0.00000000    
 -0.32098904697695679       -2.4546938934129476E-002   0.00000000    
 -0.31222876093112500       -4.4208643682631908E-002   0.00000000    
 -0.29845452708564912       -6.3370804055754251E-002   0.00000000    
 -0.27967767867256327       -8.1715394913950537E-002   0.00000000    
 -0.25628833104416820       -9.8870665802096330E-002   0.00000000    
 -0.22849704817317568      -0.11454749626779130        0.00000000    
 -0.19685073651379459      -0.12838628538681390        0.00000000    
 -0.16175569515651314      -0.14016028599592667        0.00000000    
 -0.12388386146790283      -0.14956122830010626        0.00000000    
  -8.3811114688971067E-002 -0.15645621629128922        0.00000000    
  -4.2283882594470232E-002 -0.16062460560769928        0.00000000    
   3.1707415398814092E-009 -0.16204975509919164        0.00000000    
   4.2283889000595480E-002 -0.16062460545781304        0.00000000    
   8.3811121075214171E-002 -0.15645621585217889        0.00000000    
  0.12388386770920831      -0.14956122762095436        0.00000000    
  0.16175570124490027      -0.14016028517844087        0.00000000    
  0.19685074234997396      -0.12838628470037189        0.00000000    
  0.22849705384851501      -0.11454749576050513        0.00000000    
  0.25628833649220395       -9.8870665167507740E-002   0.00000000    
  0.27967768399269261       -8.1715394155110810E-002   0.00000000    
  0.29845453220909057       -6.3370803033210563E-002   0.00000000    
  0.31222876572220859       -4.4208642440673122E-002   0.00000000    
  0.32098905128675648       -2.4546937421218214E-002   0.00000000    
  0.32451451845853591       -4.7345808282352915E-003   0.00000000    
  0.32297706786423203        1.4910869616566222E-002   0.00000000    
  0.31632138007900862        3.4089367238764628E-002   0.00000000    
  0.30487300823789532        5.2505428412137928E-002   0.00000000    
  0.28872747571273438        6.9922966888097363E-002   0.00000000    
  0.26832748380454619        8.6081521678413431E-002   0.00000000    
  0.24389898297761042       0.10081403392877344        0.00000000    
  0.21596417639515750       0.11390067732403214        0.00000000    
  0.18485750126427083       0.12524101752928130        0.00000000    
  0.15114585606510719       0.13465669308738468        0.00000000    
  0.11525116683526121       0.14210725828024720        0.00000000    
   7.7755023996357170E-002  0.14745469803456329        0.00000000    
   3.9147533819905427E-002  0.15071072051922313        0.00000000    
   0.0000000000000000       0.15177701495454174        0.00000000    
   0.0000000000000000       0.19165097843333756        0.00000000    
  -4.0283709440722883E-002  0.19026936117203727        0.00000000    
  -8.0002199209488506E-002  0.18622339828010978        0.00000000    
 -0.11863256007243861       0.17946642259829815        0.00000000    
 -0.15558502921867934       0.17014604791844593        0.00000000    
 -0.19039548876071552       0.15827512809691247        0.00000000    
 -0.22247095899501207       0.14405007241190176        0.00000000    
 -0.25142346789496695       0.12755331390014904        0.00000000    
 -0.27668357911355324       0.10903221303452508        0.00000000    
 -0.29795921940713249        8.8649266365543739E-002   0.00000000    
 -0.31473758311960448        6.6704383652754412E-002   0.00000000    
 -0.32684497775100291        4.3447536443660777E-002   0.00000000    
 -0.33386392103002843        1.9228688972007874E-002   0.00000000    
 -0.33576287440571323       -5.6146397352381666E-003   0.00000000    
 -0.33226105265860539       -3.0692811396641387E-002   0.00000000    
 -0.32349056356820605       -5.5592187472890194E-002   0.00000000    
 -0.30934600657341754       -7.9904692656224144E-002   0.00000000    
 -0.29013678299241613      -0.10316622046355536        0.00000000    
 -0.26596152698172348      -0.12498308644070601        0.00000000    
 -0.23730616423585174      -0.14488036431986726        0.00000000    
 -0.20448407927125997      -0.16252045735686860        0.00000000    
 -0.16813685397228093      -0.17746702448629001        0.00000000    
 -0.12877923951767062      -0.18948258198843770        0.00000000    
  -8.7165070445703347E-002 -0.19822042274617996        0.00000000    
  -4.3971039036694512E-002 -0.20358030706905564        0.00000000    
   3.0602234604563834E-009 -0.20534762600060810        0.00000000    
   4.3971045089889166E-002 -0.20358030691655921        0.00000000    
   8.7165076477896619E-002 -0.19822042226879591        0.00000000    
  0.12877924554236136      -0.18948258119511924        0.00000000    
  0.16813685973166875      -0.17746702336474984        0.00000000    
  0.20448408481472535      -0.16252045650635052        0.00000000    
  0.23730616949645589      -0.14488036353295583        0.00000000    
  0.26596153200853873      -0.12498308562464998        0.00000000    
  0.29013678779904861      -0.10316621953809355        0.00000000    
  0.30934601122703625       -7.9904691450600557E-002   0.00000000    
  0.32349056795425096       -5.5592185814079521E-002   0.00000000    
  0.33226105676474627       -3.0692809539393556E-002   0.00000000    
  0.33576287820681738       -5.6146377957332549E-003   0.00000000    
  0.33386392468850939        1.9228690670332692E-002   0.00000000    
  0.32684498118499572        4.3447538089356461E-002   0.00000000    
  0.31473758633530752        6.6704385296827179E-002   0.00000000    
  0.29795922239869066        8.8649268109516288E-002   0.00000000    
  0.27668358201354987       0.10903221478150639        0.00000000    
  0.25142347051080383       0.12755331570962408        0.00000000    
  0.22247096134897909       0.14405007416511964        0.00000000    
  0.19039549071885756       0.15827512974458918        0.00000000    
  0.15558503083833686       0.17014604949020615        0.00000000    
  0.11863256139801009       0.17946642437667396        0.00000000    
   8.0002200072177593E-002  0.18622340008259317        0.00000000    
   4.0283709803472380E-002  0.19026936304503175        0.00000000    
   0.0000000000000000       0.19165098023180685        0.00000000    
   0.0000000000000000       0.23273043174748367        0.00000000    
  -4.1641957864281695E-002  0.23111687777031900        0.00000000    
  -8.2731322285265765E-002  0.22618503839737686        0.00000000    
 -0.12267869040038941       0.21808381388197107        0.00000000    
 -0.16098272529075724       0.20678646285319688        0.00000000    
 -0.19703426643025862       0.19249801582422987        0.00000000    
 -0.23039784982378825       0.17526753990395830        0.00000000    
 -0.26046687490605425       0.15535868169149525        0.00000000    
 -0.28688894515835456       0.13291032749755344        0.00000000    
 -0.30908961825969744       0.10824876571558292        0.00000000    
 -0.32682083019919578        8.1615759753311173E-002   0.00000000    
 -0.33957786901050230        5.3401893163106007E-002   0.00000000    
 -0.34724222440323232        2.3958929614441151E-002   0.00000000    
 -0.34942302223840482       -6.2638309303657304E-003   0.00000000    
 -0.34615805552483164       -3.6809111140066707E-002   0.00000000    
 -0.33721664598561979       -6.7186489295402135E-002   0.00000000    
 -0.32281602435905682       -9.6854273087771586E-002   0.00000000    
 -0.30292701404791200      -0.12531357798999387        0.00000000    
 -0.27795835384384560      -0.15197834982636649        0.00000000    
 -0.24810919398034126      -0.17638832861820056        0.00000000    
 -0.21397266368842358      -0.19796981391109925        0.00000000    
 -0.17597927737050839      -0.21635698543817208        0.00000000    
 -0.13487422626993550      -0.23105399285311770        0.00000000    
  -9.1292647993579029E-002 -0.24184346567721685        0.00000000    
  -4.6073384915503113E-002 -0.24836926526632236        0.00000000    
   2.7312222319062425E-009 -0.25060180425196293        0.00000000    
   4.6073390456125421E-002 -0.24836926512475163        0.00000000    
   9.1292653571374338E-002 -0.24184346520507854        0.00000000    
  0.13487423168965956      -0.23105399188897971        0.00000000    
  0.17597928286449474      -0.21635698429641123        0.00000000    
  0.21397266914915183      -0.19796981283162138        0.00000000    
  0.24810919912823379      -0.17638832746455202        0.00000000    
  0.27795835865398966      -0.15197834880551003        0.00000000    
  0.30292701875155087      -0.12531357694264408        0.00000000    
  0.32281602877507215       -9.6854271563398500E-002   0.00000000    
  0.33721665009827939       -6.7186487384411173E-002   0.00000000    
  0.34615805944258810       -3.6809109060191428E-002   0.00000000    
  0.34942302609658021       -6.2638288488701599E-003   0.00000000    
  0.34724222804975052        2.3958931525056147E-002   0.00000000    
  0.33957787249089849        5.3401894987121938E-002   0.00000000    
  0.32682083345800916        8.1615761658936706E-002   0.00000000    
  0.30908962133056206       0.10824876761009668        0.00000000    
  0.28688894792437686       0.13291032949039774        0.00000000    
  0.26046687750899816       0.15535868370234554        0.00000000    
  0.23039785213262937       0.17526754201177402        0.00000000    
  0.19703426839034985       0.19249801786188381        0.00000000    
  0.16098272681454773       0.20678646480976537        0.00000000    
  0.12267869161706611       0.21808381587673903        0.00000000    
   8.2731323233204979E-002  0.22618504071508827        0.00000000    
   4.1641958387465115E-002  0.23111688005278111        0.00000000    
   0.0000000000000000       0.23273043402241855        0.00000000    
   0.0000000000000000       0.27533721647836518        0.00000000    
  -4.3228491186173050E-002  0.27338178317707856        0.00000000    
  -8.5876462123101419E-002  0.26765870938266051        0.00000000    
 -0.12740976720425304       0.25809205694955828        0.00000000    
 -0.16721392305686558       0.24488765122816950        0.00000000    
 -0.20481246901280104       0.22804815489719518        0.00000000    
 -0.23957381803534783       0.20784357334515169        0.00000000    
 -0.27109261780817673       0.18437171270298217        0.00000000    
 -0.29874452904184151       0.15797251722902866        0.00000000    
 -0.32221348091060414       0.12885743958173645        0.00000000    
 -0.34091637447341550        9.7442429606461073E-002   0.00000000    
 -0.35465072175564505        6.4067846894810349E-002   0.00000000    
 -0.36291866372680720        2.9226510278872707E-002   0.00000000    
 -0.36566093287496970       -6.6071083604244537E-003   0.00000000    
 -0.36251640732465507       -4.2874090204143143E-002   0.00000000    
 -0.35360010870159825       -7.8977983413236960E-002   0.00000000    
 -0.33874037172222893      -0.11432190306863874        0.00000000    
 -0.31825160096280464      -0.14822249531835899        0.00000000    
 -0.29219550492021112      -0.18009295541566084        0.00000000    
 -0.26109500457409829      -0.20922215055941012        0.00000000    
 -0.22526819641142348      -0.23509809810466969        0.00000000    
 -0.18542981737823286      -0.25705923478106096        0.00000000    
 -0.14214578591463051      -0.27473959451745872        0.00000000    
  -9.6274399569777291E-002 -0.28760959739776765        0.00000000    
  -4.8584400095507602E-002 -0.29551116499642455        0.00000000    
   2.7152548061777769E-009 -0.29811646398757585        0.00000000    
   4.8584405368261752E-002 -0.29551116477527611        0.00000000    
   9.6274404659013130E-002 -0.28760959685886139        0.00000000    
  0.14214579109835124      -0.27473959355650224        0.00000000    
  0.18542982263513177      -0.25705923378355960        0.00000000    
  0.22526820177945939      -0.23509809695881104        0.00000000    
  0.26109500990201906      -0.20922214911919146        0.00000000    
  0.29219551005623584      -0.18009295415172968        0.00000000    
  0.31825160554467707      -0.14822249385342601        0.00000000    
  0.33874037600099272      -0.11432190137111632        0.00000000    
  0.35360011284709686       -7.8977981238774558E-002   0.00000000    
  0.36251641120610156       -4.2874087928783652E-002   0.00000000    
  0.36566093650050618       -6.6071061589215467E-003   0.00000000    
  0.36291866734196060        2.9226512291521057E-002   0.00000000    
  0.35465072509742102        6.4067849056292592E-002   0.00000000    
  0.34091637759713461        9.7442431614260264E-002   0.00000000    
  0.32221348374082559       0.12885744185552320        0.00000000    
  0.29874453169282483       0.15797251932668080        0.00000000    
  0.27109262021810149       0.18437171501316169        0.00000000    
  0.23957382022696785       0.20784357566604603        0.00000000    
  0.20481247092273638       0.22804815735220524        0.00000000    
  0.16721392466293222       0.24488765350755132        0.00000000    
  0.12740976830533327       0.25809205943361391        0.00000000    
   8.5876462784698612E-002  0.26765871191930490        0.00000000    
   4.3228491597251707E-002  0.27338178591588186        0.00000000    
   0.0000000000000000       0.27533721923122101        0.00000000    
   0.0000000000000000       0.31956294734721558        0.00000000    
  -4.5004522197210531E-002  0.31739024534832178        0.00000000    
  -8.9445230269168036E-002  0.31074010577911515        0.00000000    
 -0.13271342715930110       0.29981334197390980        0.00000000    
 -0.17429792838521033       0.28455620244229496        0.00000000    
 -0.21355586411984612       0.26523726431904021        0.00000000    
 -0.25003738628326261       0.24189851358595532        0.00000000    
 -0.28308303084977099       0.21488239496673270        0.00000000    
 -0.31231759987126301       0.18434949275905546        0.00000000    
 -0.33709296251301712       0.15072595570567002        0.00000000    
 -0.35712935461752843       0.11431437553920915        0.00000000    
 -0.37183053828186474        7.5632607837716692E-002   0.00000000    
 -0.38104159953666172        3.5141927649089959E-002   0.00000000    
 -0.38427120749338067       -6.5494740396195251E-003   0.00000000    
 -0.38152548355381749       -4.8820800310089597E-002   0.00000000    
 -0.37247930992357514       -9.0992572367841557E-002   0.00000000    