 <VTKFile type="UnstructuredGrid" version="0.1" byte_order="BigEndian">
 <UnstructuredGrid>
 <Piece NumberOfPoints="        2601 " NumberOfCells="        2500 ">
 <PointData Scalars="scalars">
 <DataArray type="Float32" NumberOfComponents="3" Name="Velocity" Format="ascii">
   0.0000000000000000        0.0000000000000000        0.00000000    
 -0.13578310168374044        0.0000000000000000        0.00000000    
 -0.27119619760587399        0.0000000000000000        0.00000000    
 -0.40563204655991097        0.0000000000000000        0.00000000    
 -0.53883113488632117        0.0000000000000000        0.00000000    
 -0.66981052773380412        0.0000000000000000        0.00000000    
 -0.79828463414144246        0.0000000000000000        0.00000000    
 -0.92272598497045177        0.0000000000000000        0.00000000    
  -1.0426559825813302        0.0000000000000000        0.00000000    
  -1.1557949344784373        0.0000000000000000        0.00000000    
  -1.2612644637503574        0.0000000000000000        0.00000000    
  -1.3558091642155421        0.0000000000000000        0.00000000    
  -1.4379373018230250        0.0000000000000000        0.00000000    
  -1.5032785051269169        0.0000000000000000        0.00000000    
  -1.5496633950296628        0.0000000000000000        0.00000000    
  -1.5717635636772340        0.0000000000000000        0.00000000    
  -1.5672156789608400        0.0000000000000000        0.00000000    
  -1.5303268377733596        0.0000000000000000        0.00000000    
  -1.4599832372309667        0.0000000000000000        0.00000000    
  -1.3509719835705267        0.0000000000000000        0.00000000    
  -1.2055301763406769        0.0000000000000000        0.00000000    
  -1.0202423601349324        0.0000000000000000        0.00000000    
 -0.80234113882526337        0.0000000000000000        0.00000000    
 -0.55278376835012744        0.0000000000000000        0.00000000    
 -0.28331302410624082        0.0000000000000000        0.00000000    
  -1.4538937110750690E-003   0.0000000000000000        0.00000000    
  0.28048994101186869        0.0000000000000000        0.00000000    
  0.55023229247288763        0.0000000000000000        0.00000000    
  0.80017369866998156        0.0000000000000000        0.00000000    
   1.0185234626920896        0.0000000000000000        0.00000000    
   1.2042597308184015        0.0000000000000000        0.00000000    
   1.3501228032141857        0.0000000000000000        0.00000000    
   1.4594722661591566        0.0000000000000000        0.00000000    
   1.5301224328045893        0.0000000000000000        0.00000000    
   1.5672024424120645        0.0000000000000000        0.00000000    
   1.5719363327161138        0.0000000000000000        0.00000000    
   1.5499111709697859        0.0000000000000000        0.00000000    
   1.5036167606360904        0.0000000000000000        0.00000000    
   1.4382772427924315        0.0000000000000000        0.00000000    
   1.3561783431112606        0.0000000000000000        0.00000000    
   1.2615979772731303        0.0000000000000000        0.00000000    
   1.1561247926430762        0.0000000000000000        0.00000000    
   1.0429365133397706        0.0000000000000000        0.00000000    
  0.92298727578202211        0.0000000000000000        0.00000000    
  0.79849554606249873        0.0000000000000000        0.00000000    
  0.66999531597668727        0.0000000000000000        0.00000000    
  0.53896975362740163        0.0000000000000000        0.00000000    
  0.40574111797631718        0.0000000000000000        0.00000000    
  0.27126452637761422        0.0000000000000000        0.00000000    
  0.13581906499898500        0.0000000000000000        0.00000000    
   0.0000000000000000        0.0000000000000000        0.00000000    
   0.0000000000000000       0.13555458086962938        0.00000000    
 -0.13509400545922962       0.13532380141633527        0.00000000    
 -0.26972171049777649       0.13471827432593092        0.00000000    
 -0.40359051394552203       0.13358765209887966        0.00000000    
 -0.53593367370644751       0.13195586891221109        0.00000000    
 -0.66650695339899424       0.12959807500362758        0.00000000    
 -0.79409477154268338       0.12646511904233415        0.00000000    
 -0.91835599659281442       0.12223872393525280        0.00000000    
  -1.0374407083707726       0.11677724982046785        0.00000000    
  -1.1507278574147326       0.10965011216459007        0.00000000    
  -1.2555113024407416       0.10060411951464721        0.00000000    
  -1.3506706241150066        8.9101155678855098E-002   0.00000000    
  -1.4324330013537709        7.4790607562893005E-002   0.00000000    
  -1.4989891149542083        5.7107952371023216E-002   0.00000000    
  -1.5454518871846026        3.5740947145715463E-002   0.00000000    
  -1.5694033937592153        1.0311959135274341E-002   0.00000000    
  -1.5652154897418145       -1.9046523266218328E-002   0.00000000    
  -1.5307442495037591       -5.2312340573246810E-002   0.00000000    
  -1.4604079842253717       -8.8366314480037622E-002   0.00000000    
  -1.3542991947247869      -0.12675252512327287        0.00000000    
  -1.2077473694197531      -0.16523991029953700        0.00000000    
  -1.0253071292988369      -0.20248695551366944        0.00000000    
 -0.80497733471170207      -0.23574287501131505        0.00000000    
 -0.55676469406514617      -0.26202595555412689        0.00000000    
 -0.28453599565973303      -0.27967230943066768        0.00000000    
  -1.5032719740327727E-003 -0.28521836878053647        0.00000000    
  0.28164458671249526      -0.27987214876018213        0.00000000    
  0.55415368173370871      -0.26237812006585776        0.00000000    
  0.80278381213277417      -0.23619223598405173        0.00000000    
   1.0235886382160568      -0.20296116876113818        0.00000000    
   1.2064980921521138      -0.16568336279883694        0.00000000    
   1.3534657674713471      -0.12714618781499937        0.00000000    
   1.4599457613423419       -8.8682065448528941E-002   0.00000000    
   1.5305426466431586       -5.2563775739022787E-002   0.00000000    
   1.5652564839002410       -1.9228853538205255E-002   0.00000000    
   1.5695667223057310        1.0185949426184003E-002   0.00000000    
   1.5457452059562291        3.5661959734590860E-002   0.00000000    
   1.4993108516401876        5.7068042297877028E-002   0.00000000    
   1.4328067087966216        7.4776861428702407E-002   0.00000000    
   1.3510205043965828        8.9109491051389988E-002   0.00000000    
   1.2558690084145443       0.10062362383511347        0.00000000    
   1.1510393633609390       0.10968046323657296        0.00000000    
   1.0377382773597013       0.11681016312562950        0.00000000    
  0.91860215492544128       0.12227646124235601        0.00000000    
  0.79431725665045205       0.12650143386478180        0.00000000    
  0.66668079028512650       0.12963653209170453        0.00000000    
  0.53607948088389201       0.13199161104875959        0.00000000    
  0.40369304372337605       0.13362473469842756        0.00000000    
  0.26979348377548379       0.13475269088498323        0.00000000    
  0.13512780106133263       0.13535972800202345        0.00000000    
   0.0000000000000000       0.13558841321456519        0.00000000    
   0.0000000000000000       0.26962822368779937        0.00000000    
 -0.13292876527653161       0.26927414297865443        0.00000000    
 -0.26550982118958638       0.26797790697063645        0.00000000    
 -0.39716483903031657       0.26585305331099468        0.00000000    
 -0.52766313257240849       0.26253313238721471        0.00000000    
 -0.65607004343711872       0.25800221206647217        0.00000000    
 -0.78215064130737666       0.25173060594693514        0.00000000    
 -0.90445798922187792       0.24354301577172538        0.00000000    
  -1.0226036507118357       0.23270453408343442        0.00000000    
  -1.1344293900625677       0.21883691609772379        0.00000000    
  -1.2391994398278121       0.20097200622176739        0.00000000    
  -1.3338084865353417       0.17850282923206212        0.00000000    
  -1.4169389171115916       0.15028292866785639        0.00000000    
  -1.4843322835825790       0.11556629321006610        0.00000000    
  -1.5338873595418454        7.3301630245179300E-002   0.00000000    
  -1.5602357252089945        2.3052318103742139E-002   0.00000000    
  -1.5606295863470241       -3.5579762361374404E-002   0.00000000    
  -1.5292899146374257      -0.10158885723263618        0.00000000    
  -1.4642324830850686      -0.17448234617738628        0.00000000    
  -1.3601707951910027      -0.25080582883473190        0.00000000    
  -1.2186736278860377      -0.32923446506804604        0.00000000    
  -1.0353221152388543      -0.40428302486922690        0.00000000    
 -0.81766347569015851      -0.47193411809893815        0.00000000    
 -0.56485991743132302      -0.52684979334560289        0.00000000    
 -0.29041306548522572      -0.56152290824192785        0.00000000    
  -1.6322976937798281E-003 -0.57518014898784853        0.00000000    
  0.28726067364669922      -0.56195008613051156        0.00000000    
  0.56208275172221212      -0.52763024204891795        0.00000000    
  0.81540034415260298      -0.47288671881729427        0.00000000    
   1.0336031470903466      -0.40527319327090272        0.00000000    
   1.2174853464155115      -0.33016186291852823        0.00000000    
   1.3594343612154578      -0.25158324369156571        0.00000000    
   1.4638402080184705      -0.17512970827508886        0.00000000    
   1.5292046180139713      -0.10207627972907979        0.00000000    
   1.5607150936505840       -3.5939506264948781E-002   0.00000000    
   1.5604930993028368        2.2809520861341283E-002   0.00000000    
   1.5341979595100375        7.3156214255386112E-002   0.00000000    
   1.4847158807010765       0.11549139666821619        0.00000000    
   1.4173083452692510       0.15026636719947956        0.00000000    
   1.3341956578216398       0.17852006399068823        0.00000000    
   1.2395422186141305       0.20101917796223401        0.00000000    
   1.1347628394304199       0.21889512921552551        0.00000000    
   1.0228841298497864       0.23277649253254065        0.00000000    
  0.90471704869152314       0.24361453827859794        0.00000000    
  0.78235846912536111       0.25180804045207483        0.00000000    
  0.65625134266997598       0.25807472629641937        0.00000000    
  0.52779868475625413       0.26260859414819782        0.00000000    
  0.39727127199187168       0.26592281292418557        0.00000000    
  0.26557639358248508       0.26805026359564238        0.00000000    
  0.13296377784705871       0.26934166701084833        0.00000000    
   0.0000000000000000       0.26969926677156464        0.00000000    
   0.0000000000000000       0.40095172929724848        0.00000000    
 -0.12940120187998869       0.40028175701202190        0.00000000    
 -0.25838057320383423       0.39853187234220383        0.00000000    
 -0.38668909951355551       0.39526378345925123        0.00000000    
 -0.51362975173505321       0.39056249840255036        0.00000000    
 -0.63902783362317506       0.38377898757216372        0.00000000    
 -0.76178781584755961       0.37479555763985933        0.00000000    
 -0.88169662640875091       0.36269536712603606        0.00000000    
 -0.99709900777907057       0.34710136772967587        0.00000000    
  -1.1075959593939138       0.32676391202917038        0.00000000    
  -1.2107581102870553       0.30097834626587300        0.00000000    
  -1.3057947326641892       0.26814328895846562        0.00000000    
  -1.3892339982914874       0.22721329156515613        0.00000000    
  -1.4596091313975226       0.17640555049292456        0.00000000    
  -1.5121595938378951       0.11456902665303483        0.00000000    
  -1.5443922121337577        4.0367013962753003E-002   0.00000000    
  -1.5504166644592758       -4.6475042729681809E-002   0.00000000    
  -1.5266895673139949      -0.14575925165721035        0.00000000    
  -1.4676229597407069      -0.25443490350352510        0.00000000    
  -1.3712495924811678      -0.37128724797195084        0.00000000    
  -1.2325456809326987      -0.48895305209539064        0.00000000    
  -1.0554081539390776      -0.60505241372398133        0.00000000    
 -0.83435448019898617      -0.70987598312959821        0.00000000    
 -0.58176320345352894      -0.79430171137704586        0.00000000    
 -0.29828204091804794      -0.85199795502659348        0.00000000    
  -1.9126953408690152E-003 -0.86985416894480738        0.00000000    
  0.29469937153893405      -0.85278005775826948        0.00000000    
  0.57868723232436203      -0.79560915963749357        0.00000000    
  0.83195671100345037      -0.71149382041542053        0.00000000    
   1.0537551114474715      -0.60666623566293298        0.00000000    
   1.2314750768072535      -0.49036992147078068        0.00000000    
   1.3706608880334559      -0.37250893849139011        0.00000000    
   1.4674263410960884      -0.25537423464471826        0.00000000    
   1.5267186481138879      -0.14648738302317846        0.00000000    
   1.5506702701474384       -4.6989406558167350E-002   0.00000000    
   1.5447199975702881        4.0032790081249561E-002   0.00000000    
   1.5125775476873726       0.11437164304069281        0.00000000    
   1.4600162874137781       0.17632042223803118        0.00000000    
   1.3896634469079303       0.22719883819806519        0.00000000    
   1.3061767696835462       0.26818808407281558        0.00000000    
   1.2111322037661392       0.30105029371830622        0.00000000    
   1.1079128806497596       0.32686385107139998        0.00000000    
  0.99739524165867866       0.34720525788612921        0.00000000    
  0.88193789914748821       0.36281133873457355        0.00000000    
  0.76200341697659046       0.37490544632764450        0.00000000    
  0.63919485015996169       0.38389416080096100        0.00000000    
  0.51376901654735918       0.39066879995811532        0.00000000    
  0.38678660302405876       0.39537358380970672        0.00000000    
  0.25844864506734200       0.39863348046251651        0.00000000    
  0.12943320269825798       0.40038766042747154        0.00000000    
   0.0000000000000000       0.40105140640050524        0.00000000    
   0.0000000000000000       0.52787148522303950        0.00000000    
 -0.12443673444873730       0.52720102913781253        0.00000000    
 -0.24857842992313420       0.52473475833683525        0.00000000    
 -0.37191882659067699       0.52071091117809454        0.00000000    
 -0.49429521859673964       0.51443350442705360        0.00000000    
 -0.61489861628090636       0.50591054943481339        0.00000000    
 -0.73361864249969766       0.49414509043978139        0.00000000    
 -0.84922466453110479       0.47886175126270847        0.00000000    
 -0.96156105910468803       0.45867484081865961        0.00000000    
  -1.0688096879186915       0.43293709800828584        0.00000000    
  -1.1706292168506343       0.39978791459801677        0.00000000    
  -1.2643722587004242       0.35811445580271922        0.00000000    
  -1.3492818069674015       0.30559200418022953        0.00000000    
  -1.4215298854987075       0.24065111049522503        0.00000000    
  -1.4795317504918879       0.16087684833977597        0.00000000    
  -1.5178953374033355        6.4656445968838350E-002   0.00000000    
  -1.5334036138158125       -4.9230705539372338E-002   0.00000000    
  -1.5195136673855254      -0.18061959881925918        0.00000000    
  -1.4706099953487721      -0.32754381138861671        0.00000000    
  -1.3824434205696126      -0.48271726440860596        0.00000000    
  -1.2532851706873991      -0.64538418949536880        0.00000000    
  -1.0769305812687522      -0.80211239032761750        0.00000000    
 -0.86215453163500377      -0.94864473828170759        0.00000000    
 -0.60002992475572003       -1.0702478513151668        0.00000000    
 -0.31174820231874606       -1.1478137193516911        0.00000000    
  -2.2974498504695091E-003  -1.1798575230226591        0.00000000    
  0.30734633559617219       -1.1490315764062424        0.00000000    
  0.59648622747582480       -1.0724844129567570        0.00000000    
  0.85971691558751129      -0.95111774537164262        0.00000000    
   1.0753320732227611      -0.80445487721408016        0.00000000    
   1.2524763439423139      -0.64744451359273458        0.00000000    
   1.3821478302626022      -0.48429063632611674        0.00000000    
   1.4706111720731663      -0.32882031399578338        0.00000000    
   1.5198271254365818      -0.18154853946099492        0.00000000    
   1.5338065474518057       -4.9858260606013061E-002   0.00000000    
   1.5183997545256400        6.4259750125604406E-002   0.00000000    
   1.4800175006972640       0.16067043516113741        0.00000000    
   1.4220315383126383       0.24056990706832762        0.00000000    
   1.3497233635245041       0.30561142961913407        0.00000000    
   1.2648004140079776       0.35818618499448851        0.00000000    
   1.1709902684230571       0.39990797523385563        0.00000000    
   1.0691473182971121       0.43306951731829685        0.00000000    
  0.96183721782195120       0.45882840973713979        0.00000000    
  0.84947440261415919       0.47900942591403300        0.00000000    
  0.73381584734894278       0.49430148092670295        0.00000000    
  0.61506870439794770       0.50605492221405302        0.00000000    
  0.49442132894212376       0.51458233593185754        0.00000000    
  0.37201726904900950       0.52084761078879871        0.00000000    
  0.24863977898542494       0.52487599224799952        0.00000000    
  0.12446892408112728       0.52733253725391682        0.00000000    
   0.0000000000000000       0.52800974808854839        0.00000000    
   0.0000000000000000       0.64936899226907574        0.00000000    
 -0.11817246689378583       0.64831375468312680        0.00000000    
 -0.23598601278606796       0.64557830514646364        0.00000000    
 -0.35324922391244384       0.64047200234660584        0.00000000    
 -0.46937326908189941       0.63317387982260198        0.00000000    
 -0.58427981563260090       0.62268114601548918        0.00000000    
 -0.69707016182909221       0.60888589264132942        0.00000000    
 -0.80772300573110589       0.59038083879106995        0.00000000    
 -0.91491770068732459       0.56668786458489662        0.00000000    
  -1.0186164443749484       0.53587246489054274        0.00000000    
  -1.1169039037121162       0.49696055131964412        0.00000000    
  -1.2095985174319215       0.44738048515056267        0.00000000    
  -1.2938949941337452       0.38553300652698536        0.00000000    
  -1.3691969559013690       0.30826114891874856        0.00000000    
  -1.4312716252520741       0.21334433974323957        0.00000000    
  -1.4784683988378504        9.7750302706217859E-002   0.00000000    
  -1.5043966338609942       -4.0887069700401853E-002   0.00000000    
  -1.5044356067669176      -0.20281323635846438        0.00000000    
  -1.4712086037487604      -0.38747988503182451        0.00000000    
  -1.3936314846110602      -0.58852393100702627        0.00000000    
  -1.2725752930178209      -0.78979101744089808        0.00000000    
  -1.1085969038853483      -0.99803760668119723        0.00000000    
 -0.88615893763755960       -1.1899326071987946        0.00000000    
 -0.62741985546360468       -1.3498227549318533        0.00000000    
 -0.32211496595540912       -1.4618245132218461        0.00000000    
  -3.1560907455168287E-003  -1.4942554490823736        0.00000000    
  0.31669775310401771       -1.4641303718320431        0.00000000    
  0.62330959200265534       -1.3531364339266709        0.00000000    
  0.88343068478935749       -1.1938165888777428        0.00000000    
   1.1075132575519873       -1.0014528334634965        0.00000000    
   1.2721653167774263      -0.79224195308650880        0.00000000    
   1.3936226098258566      -0.59062102928417270        0.00000000    
   1.4717035297112597      -0.38903322901311399        0.00000000    
   1.5050197099717519      -0.20386679425848372        0.00000000    
   1.5050817587445744       -4.1580504726854026E-002   0.00000000    
   1.4791087036634343        9.7362823345746058E-002   0.00000000    
   1.4318999084968105       0.21315939862670299        0.00000000    
   1.3697358282314731       0.30823198170040367        0.00000000    
   1.2944029298961170       0.38559142862969853        0.00000000    
   1.2100194601658394       0.44751361193129718        0.00000000    
   1.1172927022406196       0.49711846235134843        0.00000000    
   1.0189322352790005       0.53606346260680615        0.00000000    
  0.91520346629857274       0.56687435208950698        0.00000000    
  0.80795012345822959       0.59058066336605952        0.00000000    
  0.69726945457150824       0.60907049145504188        0.00000000    
  0.58443216278818422       0.62287137278517724        0.00000000    
  0.46949902891189010       0.63334742245991116        0.00000000    
  0.35333672815267664       0.64064991430571072        0.00000000    
  0.23604678727565442       0.64574214987588074        0.00000000    
  0.11820099099656231       0.64848406180714258        0.00000000    
   0.0000000000000000       0.64952916987647347        0.00000000    
   0.0000000000000000       0.76368535517352132        0.00000000    
 -0.11057788682127531       0.76274871666573907        0.00000000    
 -0.22090814474216397       0.75928811775529981        0.00000000    
 -0.33056254170349292       0.75368076814746543        0.00000000    
 -0.43943826205760489       0.74496584866595039        0.00000000    
 -0.54687876559392345       0.73323719544026078        0.00000000    
 -0.65289858102469389       0.71714097095341944        0.00000000    
 -0.75654640827915198       0.69642739626325179        0.00000000    
 -0.85792987822819100       0.66922043359318018        0.00000000    
 -0.95570055069431592       0.63481027148414360        0.00000000    
  -1.0500223665697310       0.59063297518295543        0.00000000    
  -1.1389656140647990       0.53534687480435905        0.00000000    
  -1.2226506094650180       0.46554903567917649        0.00000000    
  -1.2981762701050557       0.37907368484567028        0.00000000    
  -1.3653163675883233       0.27174750601120234        0.00000000    
  -1.4192644161028982       0.14049288833401402        0.00000000    
  -1.4586002276136134       -1.8364688294666115E-002   0.00000000    
  -1.4750105712375190      -0.20888538855620284        0.00000000    
  -1.4614647858815490      -0.42817961943267352        0.00000000    
  -1.4098973907403407      -0.67696781939403783        0.00000000    
  -1.2951338322550905      -0.93716599836394288        0.00000000    
  -1.1296372473488512       -1.1801367236875027        0.00000000    
 -0.92582540757463971       -1.4340824391870195        0.00000000    
 -0.63562292216107852       -1.6546136351401874        0.00000000    
 -0.32403531159358517       -1.7739252963661452        0.00000000    
  -3.6285498276224484E-003  -1.8215194686485843        0.00000000    
  0.31616801350395796       -1.7765159254866676        0.00000000    
  0.62999002794353842       -1.6611838969733153        0.00000000    
  0.92416570330728087       -1.4400650385274290        0.00000000    
   1.1289017763801923       -1.1840221728665568        0.00000000    
   1.2951288390754372      -0.94055085941030470        0.00000000    
   1.4108548144453428      -0.67949451051602083        0.00000000    
   1.4624347499728918      -0.42981971181413248        0.00000000    
   1.4760416523127151      -0.21000249222029138        0.00000000    
   1.4595306289768282       -1.8994919596231844E-002   0.00000000    
   1.4201081655870464       0.14017367724189467        0.00000000    
   1.3660138260968899       0.27165260913294298        0.00000000    
   1.2988052713156151       0.37911234166204411        0.00000000    
   1.2231571327389537       0.46569304821429175        0.00000000    
   1.1394223814652702       0.53553116011164448        0.00000000    
   1.0503867416288308       0.59086426420843963        0.00000000    
  0.95602708754368537       0.63503873709019765        0.00000000    
  0.85818819349539444       0.66946770006624179        0.00000000    
  0.75677417406261049       0.69665563927827912        0.00000000    
  0.65307515151767948       0.71737617159403089        0.00000000    
  0.54702879549454830       0.73345030659451249        0.00000000    
  0.43954853935548532       0.74518284684614267        0.00000000    
  0.33064787289982284       0.75387842627978052        0.00000000    
  0.22096118859090005       0.75949123341541047        0.00000000    
  0.11060558511199983       0.76293734882196096        0.00000000    
   0.0000000000000000       0.76388343015405535        0.00000000    
   0.0000000000000000       0.87011469361325522        0.00000000    
 -0.10182855445774239       0.86872673082510776        0.00000000    
 -0.20334045474597917       0.86515317293587024        0.00000000    
 -0.30437129473193908       0.85850186027416220        0.00000000    
 -0.40443014470112626       0.84908023664289745        0.00000000    
 -0.50349430921681493       0.83562838371232828        0.00000000    
 -0.60086542320537062       0.81814161928925211        0.00000000    
 -0.69666588799592910       0.79487594467598288        0.00000000    
 -0.78993995200211142       0.76543032232656349        0.00000000    
 -0.88097283741159227       0.72740484028029506        0.00000000    
 -0.96846251616665746       0.67985079851936381        0.00000000    
  -1.0528761081014677       0.61948678357447817        0.00000000    
  -1.1323673135832044       0.54458621743729541        0.00000000    
  -1.2075487585985529       0.45074449191084259        0.00000000    
  -1.2754974876155760       0.33516640427694538        0.00000000    
  -1.3367420315876262       0.19226745271567303        0.00000000    
  -1.3854726814221798        1.7928072396115855E-002   0.00000000    
  -1.4218027374879834      -0.19243689718710760        0.00000000    
  -1.4330823445432708      -0.44689344713018242        0.00000000    
  -1.4097231126636687      -0.73317978948470253        0.00000000    
  -1.3450732042867224       -1.0603666819475570        0.00000000    
  -1.2006700321353740       -1.3668349912476256        0.00000000    
 -0.90751849908889215       -1.7443467307404334        0.00000000    
 -0.59101253021107869       -1.9510570264536091        0.00000000    
 -0.29772955101534004       -2.0823517320284877        0.00000000    
  -6.7855219402734399E-003  -2.1244430726273471        0.00000000    
  0.28873550081943122       -2.0889091555942709        0.00000000    
  0.58529464012082955       -1.9591710580963715        0.00000000    
  0.90371512103544549       -1.7546732633728919        0.00000000    
   1.2016133925179819       -1.3720474782953465        0.00000000    
   1.3473116709300532       -1.0644500888916604        0.00000000    
   1.4115256535807552      -0.73553442612041164        0.00000000    
   1.4347538997686098      -0.44858714859393473        0.00000000    
   1.4232690610650365      -0.19335627721723467        0.00000000    
   1.3866661327946901        1.7473669435396251E-002   0.00000000    
   1.3376870357021444       0.19210751235500759        0.00000000    
   1.2763054610886209       0.33519555835802795        0.00000000    
   1.2081761722518147       0.45090811483538856        0.00000000    
   1.1329161536164563       0.54480631549366398        0.00000000    
   1.0533020577712868       0.61976762955939313        0.00000000    
  0.96883756678069410       0.68012881832763239        0.00000000    
  0.88126526387003801       0.72770703744265386        0.00000000    
  0.79019653440703352       0.76570792293058876        0.00000000    
  0.69686523446859150       0.79516163896024883        0.00000000    
  0.60103693560606208       0.81839839806360737        0.00000000    
  0.50362407954633526       0.83588819938952852        0.00000000    
  0.40453590875807321       0.84931428920635610        0.00000000    
  0.30444471091000286       0.85873975800462288        0.00000000    
  0.20339100979330241       0.86537119749873703        0.00000000    
  0.10185233918758586       0.86895256996219328        0.00000000    
   0.0000000000000000       0.87032704464864108        0.00000000    
   0.0000000000000000       0.96690514572526920        0.00000000    
  -9.1961807606998971E-002  0.96572749262638558        0.00000000    
 -0.18367963107882462       0.96138298637616881        0.00000000    
 -0.27476790556839953       0.95439201249011185        0.00000000    
 -0.36512276678873951       0.94360464567595470        0.00000000    
 -0.45420621725159532       0.92925243909539035        0.00000000    
 -0.54206858368089939       0.90975189182235749        0.00000000    
 -0.62800160563111995       0.88500000539147561        0.00000000    
 -0.71224799810733497       0.85282756172454310        0.00000000    
 -0.79389895374569508       0.81269228410997341        0.00000000    
 -0.87346023471821632       0.76161515258237100        0.00000000    
 -0.94975253382114888       0.69842915662734750        0.00000000    
  -1.0236453324247079       0.61902867906294201        0.00000000    
  -1.0934868818187540       0.52132585222790440        0.00000000    
  -1.1606012897401861       0.39964900091187655        0.00000000    
  -1.2221938141303177       0.25062273976525246        0.00000000    