 <VTKFile type="UnstructuredGrid" version="0.1" byte_order="BigEndian">
 <UnstructuredGrid>
 <Piece NumberOfPoints="        2601 " NumberOfCells="        2500 ">
 <PointData Scalars="scalars">
 <DataArray type="Float32" NumberOfComponents="3" Name="Velocity" Format="ascii">
   0.0000000000000000        0.0000000000000000        0.00000000    
  -9.0331727976772622E-002   0.0000000000000000        0.00000000    
 -0.18181140459705442        0.0000000000000000        0.00000000    
 -0.27556443823914051        0.0000000000000000        0.00000000    
 -0.37291231981379835        0.0000000000000000        0.00000000    
 -0.47505683389362802        0.0000000000000000        0.00000000    
 -0.58347742754987997        0.0000000000000000        0.00000000    
 -0.69905956402515101        0.0000000000000000        0.00000000    
 -0.82183427703610878        0.0000000000000000        0.00000000    
 -0.94822767917714390        0.0000000000000000        0.00000000    
  -1.0581937355625173        0.0000000000000000        0.00000000    
  -1.1278603779198606        0.0000000000000000        0.00000000    
  -1.1413014389270328        0.0000000000000000        0.00000000    
  -1.0968478605664500        0.0000000000000000        0.00000000    
  -1.0314016986163073        0.0000000000000000        0.00000000    
 -0.95368391809231479        0.0000000000000000        0.00000000    
 -0.86445907618788642        0.0000000000000000        0.00000000    
 -0.77433346924678548        0.0000000000000000        0.00000000    
 -0.67294223171245693        0.0000000000000000        0.00000000    
 -0.55695121125394509        0.0000000000000000        0.00000000    
 -0.44055979397529854        0.0000000000000000        0.00000000    
 -0.34033631422253952        0.0000000000000000        0.00000000    
 -0.25531677231433736        0.0000000000000000        0.00000000    
 -0.17382366143635053        0.0000000000000000        0.00000000    
  -9.7823873177467782E-002   0.0000000000000000        0.00000000    
  -2.6067885762593206E-002   0.0000000000000000        0.00000000    
   4.5068487208843870E-002   0.0000000000000000        0.00000000    
  0.11875237839867286        0.0000000000000000        0.00000000    
  0.19009867885172368        0.0000000000000000        0.00000000    
  0.27395574956240804        0.0000000000000000        0.00000000    
  0.40227669384792203        0.0000000000000000        0.00000000    
  0.52654023950798889        0.0000000000000000        0.00000000    
  0.63385776998116516        0.0000000000000000        0.00000000    
  0.76111869925659348        0.0000000000000000        0.00000000    
  0.87351862531243174        0.0000000000000000        0.00000000    
  0.96334193368446563        0.0000000000000000        0.00000000    
   1.0391453775823358        0.0000000000000000        0.00000000    
   1.1007787447948256        0.0000000000000000        0.00000000    
   1.1436871077448136        0.0000000000000000        0.00000000    
   1.1350187757453540        0.0000000000000000        0.00000000    
   1.0669308128089030        0.0000000000000000        0.00000000    
  0.95382873621185638        0.0000000000000000        0.00000000    
  0.82593894436806303        0.0000000000000000        0.00000000    
  0.70175395169390897        0.0000000000000000        0.00000000    
  0.58540558373923079        0.0000000000000000        0.00000000    
  0.47635647663001546        0.0000000000000000        0.00000000    
  0.37383026271277403        0.0000000000000000        0.00000000    
  0.27616272667387159        0.0000000000000000        0.00000000    
  0.18218645187017640        0.0000000000000000        0.00000000    
   9.0506313087142506E-002   0.0000000000000000        0.00000000    
   0.0000000000000000        0.0000000000000000        0.00000000    
   0.0000000000000000        8.9059469805495353E-002   0.00000000    
  -8.8310037196479230E-002   8.9582295367654732E-002   0.00000000    
 -0.17760982469515926        9.1197168751203692E-002   0.00000000    
 -0.26897255185640628        9.3918592052022909E-002   0.00000000    
 -0.36338629537934225        9.7843033045458924E-002   0.00000000    
 -0.46205637892502760       0.10297156457993754        0.00000000    
 -0.56586406171467607       0.10925671186583652        0.00000000    
 -0.67573052709124115       0.11619188998586322        0.00000000    
 -0.79121105249859391       0.12206334843230615        0.00000000    
 -0.90938005077797768       0.12249905198796680        0.00000000    
  -1.0215355632813738        9.9622516900691793E-002   0.00000000    
  -1.0969529660898423        4.5461528265076906E-002   0.00000000    
  -1.1130172870346984       -1.5956146312992747E-002   0.00000000    
  -1.0889084448302220       -5.2606274251933607E-002   0.00000000    
  -1.0293454851590507       -7.2402847369183149E-002   0.00000000    
 -0.94969552165730897       -8.4964896656341313E-002   0.00000000    
 -0.86194456636103156       -9.2010900544155949E-002   0.00000000    
 -0.76437020345729412       -9.5689069300452387E-002   0.00000000    
 -0.66106572952763643      -0.10900664216331006        0.00000000    
 -0.55120257827876240      -0.11684752954375291        0.00000000    
 -0.44340376713089824      -0.10734269888250224        0.00000000    
 -0.34408519924068204       -9.2199348760142297E-002   0.00000000    
 -0.25426660959836722       -8.2638782790176543E-002   0.00000000    
 -0.17194290014399286       -8.1178037541864506E-002   0.00000000    
  -9.4329119221235144E-002  -7.2435531639592862E-002   0.00000000    
  -2.5098725010879858E-002  -6.8550849985317019E-002   0.00000000    
   4.4832471457383907E-002  -7.2516719454196910E-002   0.00000000    
  0.11824018444494400       -7.4574884722866483E-002   0.00000000    
  0.19571525297478690       -7.4246484259819959E-002   0.00000000    
  0.28992742862386606      -0.10382276209962928        0.00000000    
  0.39888573162897983      -0.13345648519065198        0.00000000    
  0.51589633311766803      -0.10781766195767423        0.00000000    
  0.63305374952204552      -0.11665728491963183        0.00000000    
  0.74646408894738470      -0.12401398378071303        0.00000000    
  0.85801979706070275       -9.9941650388217784E-002   0.00000000    
  0.95572361279126861       -8.7585473714082679E-002   0.00000000    
   1.0371473377181775       -6.9641695110538901E-002   0.00000000    
   1.0928753058044627       -4.7719640187966789E-002   0.00000000    
   1.1166331066290902       -1.8946523586548525E-002   0.00000000    
   1.1022200607243187        4.2027901490881030E-002   0.00000000    
   1.0264943351757614       0.10178578699405663        0.00000000    
  0.91375038794723562       0.12406023683141039        0.00000000    
  0.79420126359833432       0.12337867936112204        0.00000000    
  0.67796866321948535       0.11703891369174171        0.00000000    
  0.56740077851163551       0.10987733897064127        0.00000000    
  0.46317899104308746       0.10339355560699706        0.00000000    
  0.36414980377010370        9.8161845583104160E-002   0.00000000    
  0.26950032823852571        9.4155165987265949E-002   0.00000000    
  0.17792811002903791        9.1393327025806992E-002   0.00000000    
   8.8465465423700609E-002   8.9749456362460192E-002   0.00000000    
   0.0000000000000000        8.9222322148279479E-002   0.00000000    
   0.0000000000000000       0.17421694169978802        0.00000000    
  -8.2439610089304602E-002  0.17517447075903750        0.00000000    
 -0.16554316502066699       0.17800833578975342        0.00000000    
 -0.24990334542865983       0.18283033258259959        0.00000000    
 -0.33618070476718420       0.18962239537622411        0.00000000    
 -0.42475019155765742       0.19843177258520608        0.00000000    
 -0.51602124621434409       0.20887524130676904        0.00000000    
 -0.60959035377427084       0.22000893348128006        0.00000000    
 -0.70485005363548470       0.22898653020529836        0.00000000    
 -0.79915764773717302       0.22805246259588829        0.00000000    
 -0.89429637955457131       0.20136335061337426        0.00000000    
 -0.97484554950082480        9.9687267307004696E-002   0.00000000    
  -1.0255046546353532       -3.4584592754597098E-003   0.00000000    
  -1.0239794559874185       -9.0738002141108137E-002   0.00000000    
 -0.96387125098484672      -0.15394228415176664        0.00000000    
 -0.86766988032473591      -0.17927679403283384        0.00000000    
 -0.75667285534103412      -0.19644698344398726        0.00000000    
 -0.64317496693999188      -0.20232523770118960        0.00000000    
 -0.53954594913475673      -0.20930396549303776        0.00000000    
 -0.45640841085624784      -0.20955089573808944        0.00000000    
 -0.37648107727361796      -0.20236547741442559        0.00000000    
 -0.29122787041198073      -0.18174834497758777        0.00000000    
 -0.20252233296338090      -0.17161391365949000        0.00000000    
 -0.11189419077014635      -0.16515475831859802        0.00000000    
  -4.5545627723291744E-002 -0.13242115482835429        0.00000000    
   2.1732778943988908E-003 -0.12551452662439366        0.00000000    
   4.9302471963798632E-002 -0.13261343334941972        0.00000000    
  0.10436624911212664      -0.14294966096246459        0.00000000    
  0.18651473860223852      -0.16549526603637835        0.00000000    
  0.27699680353166095      -0.19726822089959323        0.00000000    
  0.35017468104160454      -0.22214720690155756        0.00000000    
  0.42990571664297428      -0.21586857733412565        0.00000000    
  0.52447539337263394      -0.22033346267259829        0.00000000    
  0.61472365428449638      -0.22399640636175905        0.00000000    
  0.71416841220001737      -0.21095969383076180        0.00000000    
  0.84221352932566118      -0.20231636312421958        0.00000000    
  0.95906121337581973      -0.15318221467212931        0.00000000    
   1.0242468551804267       -8.5092730516045767E-002   0.00000000    
   1.0251244104002353       -6.2087893015082265E-003   0.00000000    
  0.97246476808376880        9.6362855427093524E-002   0.00000000    
  0.89343466057657561       0.20220666611351873        0.00000000    
  0.79954430224086970       0.23027366327594537        0.00000000    
  0.70565037538506037       0.23060830412116215        0.00000000    
  0.61035949780612464       0.22133276688930209        0.00000000    
  0.51671963971365431       0.20979122857327170        0.00000000    
  0.42528523443589034       0.19913585875052911        0.00000000    
  0.33660015605307220       0.19013380809525646        0.00000000    
  0.25019123029122936       0.18324160476840820        0.00000000    
  0.16573274434428881       0.17833759240098271        0.00000000    
   8.2529009995893216E-002  0.17547156994090321        0.00000000    
   0.0000000000000000       0.17449468398932141        0.00000000    
   0.0000000000000000       0.25203962289391596        0.00000000    
  -7.3376305539106457E-002  0.25316770519320730        0.00000000    
 -0.14689400955872664       0.25663636030645098        0.00000000    
 -0.22067700138681295       0.26234548030186333        0.00000000    
 -0.29460680364100311       0.27031440924955158        0.00000000    
 -0.36845949344491841       0.28016193530613737        0.00000000    
 -0.44135365611851285       0.29131029591598023        0.00000000    
 -0.51210744993002744       0.30189678024335792        0.00000000    
 -0.57810351463940035       0.30835444801364364        0.00000000    
 -0.63738749327455624       0.30227611752419020        0.00000000    
 -0.68411878425529593       0.26900971848299221        0.00000000    
 -0.72280928832420732       0.15128057345217763        0.00000000    
 -0.75532738651718168        2.8125437907787914E-002   0.00000000    
 -0.74406929260494947      -0.13510519188039885        0.00000000    
 -0.69141875668686870      -0.22233383532865253        0.00000000    
 -0.63176425123500057      -0.26674111896354874        0.00000000    
 -0.56061149297244428      -0.29113244175530734        0.00000000    
 -0.48814573200868028      -0.29360342875019357        0.00000000    
 -0.42251724800481461      -0.28728327624944150        0.00000000    
 -0.35118412460292980      -0.28604224665772010        0.00000000    
 -0.28844268013014746      -0.26854290454734425        0.00000000    
 -0.22776833861975856      -0.26149846621241096        0.00000000    
 -0.15691378633784478      -0.25142388215323508        0.00000000    
  -9.8243762456374520E-002 -0.23464295589530712        0.00000000    
  -3.7220341009566324E-002 -0.19030494174435506        0.00000000    
   1.5783810232062767E-002 -0.16835379656396743        0.00000000    
   5.9249957654616034E-002 -0.18036950490134254        0.00000000    
  0.10857554143989150      -0.19958295034039686        0.00000000    
  0.16569528639315709      -0.24813021110040978        0.00000000    
  0.22867593076332593      -0.26809598513098448        0.00000000    
  0.28338795537906986      -0.27920934479354592        0.00000000    
  0.34239557917804636      -0.29754509883802210        0.00000000    
  0.40666127697194066      -0.29749231568934953        0.00000000    
  0.47119724242217959      -0.30162177970212578        0.00000000    
  0.54765735387528491      -0.30923918985573134        0.00000000    
  0.61060620144806554      -0.29503083179203948        0.00000000    
  0.66743903077826949      -0.23414825938155312        0.00000000    
  0.73112423303434815      -0.13299752986137300        0.00000000    
  0.74438424088581279        2.7558446975258902E-002   0.00000000    
  0.71434036325706618       0.14529913909750136        0.00000000    
  0.67853618482024614       0.26810466838666053        0.00000000    
  0.63396084465708857       0.30284135950150354        0.00000000    
  0.57638848850474911       0.30950689090350658        0.00000000    
  0.51123446009185447       0.30287908609865499        0.00000000    
  0.44093141557949428       0.29218781196856786        0.00000000    
  0.36827457300273680       0.28083052320963420        0.00000000    
  0.29452737948470459       0.27087141553685451        0.00000000    
  0.22065595005892474       0.26278435251432014        0.00000000    
  0.14688903600086251       0.25702024465994644        0.00000000    
   7.3378787884994731E-002  0.25350290014609106        0.00000000    
   0.0000000000000000       0.25237115166490537        0.00000000    
   0.0000000000000000       0.31973374484622963        0.00000000    
  -6.2011630936962409E-002  0.32086151971684590        0.00000000    
 -0.12365376588926451       0.32410238475461706        0.00000000    
 -0.18441874312018752       0.32942742491258514        0.00000000    
 -0.24365401136197784       0.33639753513468490        0.00000000    
 -0.30022264086090139       0.34450012872370955        0.00000000    
 -0.35260639568290253       0.35225001999386224        0.00000000    
 -0.39826946233616639       0.35737391663009982        0.00000000    
 -0.43412715182124562       0.35473106582117903        0.00000000    
 -0.45545461023004641       0.33651093676041099        0.00000000    
 -0.45690577466194959       0.28295735465914867        0.00000000    
 -0.44892540700348021       0.16804307368606092        0.00000000    
 -0.42746821850123806        2.2423847364955361E-002   0.00000000    
 -0.41624034919083414      -0.15188956455549801        0.00000000    
 -0.42024203794216181      -0.25419830981616903        0.00000000    
 -0.40611630076689909      -0.30865688709869016        0.00000000    
 -0.37672442280386492      -0.34976130984121695        0.00000000    
 -0.33376741486460265      -0.35039732956336916        0.00000000    
 -0.28481514527133472      -0.34507012902892586        0.00000000    
 -0.24013141637206073      -0.34427224617608954        0.00000000    
 -0.19459393870467018      -0.31859182716485035        0.00000000    
 -0.15746416217409243      -0.30925366163352708        0.00000000    
 -0.11419964361807826      -0.31778775756559463        0.00000000    
  -6.4393607379000767E-002 -0.27675514060210665        0.00000000    
  -3.5197470077399436E-002 -0.23841231578220462        0.00000000    
   6.3724617125273967E-003 -0.21482050555751409        0.00000000    
   4.9028961182658815E-002 -0.22002544279759817        0.00000000    
   8.3508633365342991E-002 -0.24373226841194939        0.00000000    
  0.12925110084914646      -0.30684310546153282        0.00000000    
  0.16537031143114603      -0.30848294572007268        0.00000000    
  0.19821738147648710      -0.32638147886124685        0.00000000    
  0.23753144785768365      -0.34869465494790008        0.00000000    
  0.28027579952073423      -0.35335280903167232        0.00000000    
  0.32925054018861927      -0.35927199247478719        0.00000000    
  0.36792166511299940      -0.36672021345523187        0.00000000    
  0.39177421356029551      -0.32435120420931507        0.00000000    
  0.40225559492176760      -0.27214209765000463        0.00000000    
  0.39874748756339695      -0.15518078648782999        0.00000000    
  0.41588136807478399        1.9347815245056806E-002   0.00000000    
  0.43924811390857638       0.16018690262261032        0.00000000    
  0.44905811964267384       0.27921107756397406        0.00000000    
  0.45026532217584486       0.33510308795383209        0.00000000    
  0.43063342898745055       0.35444941179176742        0.00000000    
  0.39608765424695236       0.35763636836356483        0.00000000    
  0.35120147932477935       0.35261974913806998        0.00000000    
  0.29933189858265613       0.34492500935884224        0.00000000    
  0.24308582189769609       0.33677019959052473        0.00000000    
  0.18406333955691176       0.32977948022707265        0.00000000    
  0.12344748011019065       0.32440789045186486        0.00000000    
   6.1916010095861715E-002  0.32115697248424430        0.00000000    
   0.0000000000000000       0.32001187730749264        0.00000000    
   0.0000000000000000       0.37561738303087466        0.00000000    
  -4.9409525323118875E-002  0.37639903779216388        0.00000000    
  -9.7974231082855301E-002  0.37877170739121713        0.00000000    
 -0.14475892778630062       0.38230777621023143        0.00000000    
 -0.18854337357316711       0.38653689786556750        0.00000000    
 -0.22780592271582112       0.39019194463427231        0.00000000    
 -0.26041401067176628       0.39155004686110301        0.00000000    
 -0.28372099479133700       0.38704394053554053        0.00000000    
 -0.29438849054537192       0.37158622715468154        0.00000000    
 -0.28868680735159769       0.33528155064173604        0.00000000    
 -0.26753002049126084       0.26448111834914306        0.00000000    
 -0.23844702466911516       0.14945594651515984        0.00000000    
 -0.21330804503900047       -5.5851935967205692E-003   0.00000000    
 -0.19592723860479017      -0.15248919933710325        0.00000000    
 -0.18871131473272623      -0.25681291015035396        0.00000000    
 -0.18455205223567317      -0.32432728643238912        0.00000000    
 -0.17919279339409896      -0.36884204730787662        0.00000000    
 -0.17418419430668708      -0.37928219911852168        0.00000000    
 -0.16465702663707546      -0.37466469673428354        0.00000000    
 -0.15473660891571883      -0.36928182508895036        0.00000000    
 -0.14482971597930921      -0.34902661885397523        0.00000000    
 -0.12707879811894657      -0.33369956433412146        0.00000000    
 -0.11234809839371844      -0.35133707314586093        0.00000000    
  -9.0642805317455957E-002 -0.31471715433386038        0.00000000    
  -4.8829301787874750E-002 -0.27145994288163899        0.00000000    
  -3.0781297757738463E-004 -0.27186429905747966        0.00000000    
   5.0602739045766967E-002 -0.25654870079091902        0.00000000    
   9.6587531022311796E-002 -0.28767347457755721        0.00000000    
  0.12315562067806390      -0.33521245643435371        0.00000000    
  0.13742450106917251      -0.33050168571939914        0.00000000    
  0.15139830213279076      -0.35118360997021325        0.00000000    
  0.16039707556990224      -0.37220536365487922        0.00000000    
  0.16904002857509437      -0.38122940499147207        0.00000000    
  0.17632942395493850      -0.38765953255965924        0.00000000    
  0.17873753141977328      -0.37941190575593553        0.00000000    
  0.18240036943474264      -0.33917489836518411        0.00000000    
  0.18495205719109711      -0.27035147260880843        0.00000000    
  0.19158207696796012      -0.16009332394098244        0.00000000    
  0.20891977262198630       -1.0211223466802196E-002   0.00000000    
  0.23289948418501247       0.14239948393762783        0.00000000    
  0.26121809993278339       0.25886987476668649        0.00000000    
  0.28331760018140145       0.33213758796916854        0.00000000    
  0.29040983588684099       0.36995456925912046        0.00000000    
  0.28080831375652315       0.38627850776690786        0.00000000    
  0.25839100749814742       0.39128109091508062        0.00000000    
  0.22638924724073839       0.39013500858125255        0.00000000    
  0.18758222701236227       0.38661329728129284        0.00000000    
  0.14412176139091887       0.38241933049842231        0.00000000    
   9.7588533417218709E-002  0.37891712760080087        0.00000000    
   4.9226968830221478E-002  0.37654076993652058        0.00000000    
   0.0000000000000000       0.37577105878117778        0.00000000    
   0.0000000000000000       0.41881688178156928        0.00000000    
  -3.6565213883470241E-002  0.41917427824793868        0.00000000    
  -7.1979371229603475E-002  0.41997533004119236        0.00000000    
 -0.10498254871364768       0.42089202774762202        0.00000000    
 -0.13414348037971532       0.42089802378098629        0.00000000    
 -0.15773032886944585       0.41868021635110519        0.00000000    
 -0.17371878496836266       0.41165831919899604        0.00000000    
 -0.17986264467695939       0.39638651202566533        0.00000000    
 -0.17391883094708357       0.36696733768855744        0.00000000    
 -0.15552009756835120       0.31580002353517156        0.00000000    
 -0.12757684853240858       0.23486260955923324        0.00000000    
  -9.7888570037727912E-002  0.12030318098803927        0.00000000    
  -8.0533924789423408E-002  -1.8926052948231683E-002   0.00000000    
  -8.5740887766756674E-002 -0.15132218344257850        0.00000000    
 -0.10011662246691094      -0.25082011521662789        0.00000000    
 -0.11370026209073256      -0.32089570423910696        0.00000000    
 -0.12750806047985111      -0.36382508995328799        0.00000000    
 -0.13686809231535171      -0.37994772372473234        0.00000000    
 -0.13910580613897006      -0.38128862597373459        0.00000000    
 -0.13706865095442433      -0.37461546875518237        0.00000000    
 -0.12924212779398694      -0.36142639128424014        0.00000000    
 -0.11374308389474858      -0.35454975366332692        0.00000000    
 -0.10413043624249696      -0.35483023119372747        0.00000000    
  -8.8714751818054605E-002 -0.34834497378664420        0.00000000    
  -4.5443494905362015E-002 -0.32291688387044976        0.00000000    
  -1.2109632205728003E-003 -0.31316137856370491        0.00000000    
   4.3283458720185304E-002 -0.31065659524824807        0.00000000    
   9.1717384291804011E-002 -0.32798429766832832        0.00000000    
  0.11321681171281768      -0.34296915041985782        0.00000000    
  0.12415508453258646      -0.34795214494463034        0.00000000    
  0.13770342674035663      -0.36125529401602191        0.00000000    
  0.14350117130544152      -0.37693019761110308        0.00000000    
  0.14448817138678130      -0.38613452412140781        0.00000000    
  0.14103384357866205      -0.38658948100126844        0.00000000    
  0.13062613211562354      -0.37248235331573504        0.00000000    
  0.11393052595711717      -0.33307168266166814        0.00000000    
   9.7095622856354633E-002 -0.26217147296753779        0.00000000    
   8.1263594266726441E-002 -0.15907131476948486        0.00000000    
   7.6907582698642438E-002  -2.4214916724211853E-002   0.00000000    
   9.4628989803317937E-002  0.11470205852702633        0.00000000    
  0.12347815418245220       0.22939952005029118        0.00000000    
  0.15124925570355544       0.31173734091556288        0.00000000    
  0.17017014592381927       0.36434169038691255        0.00000000    
  0.17689800952842036       0.39476504516461763        0.00000000    
  0.17143099922862357       0.41067887007543885        0.00000000    
  0.15605323510433677       0.41811675380241742        0.00000000    
  0.13293166610623652       0.42056014128649871        0.00000000    
  0.10415773834909378       0.42070687987165661        0.00000000    
   7.1462985782692695E-002  0.41985755876755787        0.00000000    
   3.6318685789336148E-002  0.41910620334998827        0.00000000    
   0.0000000000000000       0.41875127998715017        0.00000000    
   0.0000000000000000       0.44959982171116780        0.00000000    
  -2.4334881283047862E-002  0.44929143348473971        0.00000000    
  -4.7376215430825451E-002  0.44831366629818153        0.00000000    
  -6.7771842650358599E-002  0.44595249619409033        0.00000000    
  -8.4068934482662089E-002  0.44129557883276305        0.00000000    
  -9.4692990824052067E-002  0.43249356613032403        0.00000000    
  -9.8072367430001917E-002  0.41721280212450829        0.00000000    
  -9.2763689049310538E-002  0.39166721042792407        0.00000000    
  -7.8336759635693004E-002  0.35131589614265574        0.00000000    
  -5.6039483801775425E-002  0.29075545586827600        0.00000000    
  -3.0242454255262223E-002  0.20616689864351495        0.00000000    
  -9.1041756507531987E-003   9.8172334804425679E-002   0.00000000    
  -1.7109783689852772E-003  -2.1543049294805539E-002   0.00000000    
  -9.0346066804811928E-003 -0.13617459580718241        0.00000000    
  -2.8310693762736792E-002 -0.23231588106957299        0.00000000    
  -5.2133948886231123E-002 -0.30199304363866641        0.00000000    
  -7.4286841500295048E-002 -0.34676705955037840        0.00000000    
  -9.1773489884466611E-002 -0.37015907390770980        0.00000000    
 -0.10238982231438072      -0.37822322953704551        0.00000000    
 -0.10567507311860094      -0.37643276957189498        0.00000000    
 -0.10139766327570195      -0.37171302347072493        0.00000000    
  -9.3550541149439892E-002 -0.36760928750200572        0.00000000    
  -8.0600820710367033E-002 -0.36433306544629740        0.00000000    
  -6.3094617918767540E-002 -0.37176402674977188        0.00000000    
  -3.9061072258736639E-002 -0.36680263347993042        0.00000000    
  -1.4308859899107159E-003 -0.35113834690734652        0.00000000    
   3.7642264301975426E-002 -0.35624719913722569        0.00000000    
   6.6665479299623423E-002 -0.35985083434804088        0.00000000    
   8.8006580706386214E-002 -0.35394314256786780        0.00000000    
  0.10162385434428051      -0.36153369925396023        0.00000000    
  0.10966454883859914      -0.36926277640866484        0.00000000    
  0.11267928011103384      -0.37773519105565334        0.00000000    
  0.10806590140266836      -0.38170315204970229        0.00000000    
   9.6233756797409753E-002 -0.37573438065926684        0.00000000    
   7.7345943243673984E-002 -0.35404192864084305        0.00000000    
   5.3435900783256392E-002 -0.31090645871733114        0.00000000    
   2.7194322983571266E-002 -0.24126021601138734        0.00000000    
   6.6405726943967736E-003 -0.14359679284665969        0.00000000    
  -1.0821357507569461E-003  -2.7610718633926154E-002   0.00000000    
   6.3455707234536885E-003   9.2948746857856479E-002   0.00000000    
   2.7376546209155996E-002  0.20127269185439173        0.00000000    
   5.2875543606449103E-002  0.28659407019299554        0.00000000    
   7.5275942834753959E-002  0.34816367166069434        0.00000000    
   9.0059875552015153E-002  0.38943126756888352        0.00000000    
   9.5872471258771075E-002  0.41566706226403122        0.00000000    
   9.2956685325111130E-002  0.43142211167167532        0.00000000    
   8.2777690840071111E-002  0.44055534690022552        0.00000000    
   6.6852865844460291E-002  0.44541042701058026        0.00000000    
   4.6794340766793105E-002  0.44790728927256640        0.00000000    
   2.4050697445145382E-002  0.44894441615987241        0.00000000    
   0.0000000000000000       0.44928245041162557        0.00000000    
   0.0000000000000000       0.46871535620010779        0.00000000    
  -1.3325048285643792E-002  0.46783582856437345        0.00000000    
  -2.5379807691829955E-002  0.46486536477239443        0.00000000    
  -3.4891363029839161E-002  0.45930798027729836        0.00000000    
  -4.0565265906077300E-002  0.44991108945797847        0.00000000    
  -4.1205753034296695E-002  0.43514259897459168        0.00000000    
  -3.5763334195966223E-002  0.41250072704773927        0.00000000    
  -2.3836472396635899E-002  0.37914374532453848        0.00000000    
  -5.9270328348467174E-003  0.33150299227051178        0.00000000    
   1.5614179200909123E-002  0.26672987187061165        0.00000000    
   3.6468755532285839E-002  0.18354087676317674        0.00000000    
   5.0615995078415868E-002   8.5512838534013064E-002   0.00000000    
   5.3950843188500158E-002  -1.9611598416294368E-002   0.00000000    
   4.4249415314196003E-002 -0.12108099049992771        0.00000000    
   2.4677669967850129E-002 -0.20856165394815265        0.00000000    
  -2.4864732422706892E-004 -0.27699769834444649        0.00000000    