 <VTKFile type="UnstructuredGrid" version="0.1" byte_order="BigEndian">
 <UnstructuredGrid>
 <Piece NumberOfPoints="        2601 " NumberOfCells="        2500 ">
 <PointData Scalars="scalars">
 <DataArray type="Float32" NumberOfComponents="3" Name="Velocity" Format="ascii">
   0.0000000000000000        0.0000000000000000        0.00000000    
 -0.11882944672747785        0.0000000000000000        0.00000000    
 -0.23673051195305164        0.0000000000000000        0.00000000    
 -0.35276597843648233        0.0000000000000000        0.00000000    
 -0.46593448290113082        0.0000000000000000        0.00000000    
 -0.57520748885767681        0.0000000000000000        0.00000000    
 -0.67943586426282909        0.0000000000000000        0.00000000    
 -0.77742436316921171        0.0000000000000000        0.00000000    
 -0.86781937209238691        0.0000000000000000        0.00000000    
 -0.94920593058819847        0.0000000000000000        0.00000000    
  -1.0200092842558399        0.0000000000000000        0.00000000    
  -1.0785928571010115        0.0000000000000000        0.00000000    
  -1.1232218123794599        0.0000000000000000        0.00000000    
  -1.1521319371770011        0.0000000000000000        0.00000000    
  -1.1636172147915078        0.0000000000000000        0.00000000    
  -1.1560282636271710        0.0000000000000000        0.00000000    
  -1.1280442499745205        0.0000000000000000        0.00000000    
  -1.0785512096273793        0.0000000000000000        0.00000000    
  -1.0071172766377601        0.0000000000000000        0.00000000    
 -0.91371141340520867        0.0000000000000000        0.00000000    
 -0.79930805364835966        0.0000000000000000        0.00000000    
 -0.66544862149614892        0.0000000000000000        0.00000000    
 -0.51479596143822948        0.0000000000000000        0.00000000    
 -0.35060828649802228        0.0000000000000000        0.00000000    
 -0.17702837525568654        0.0000000000000000        0.00000000    
   1.3910515011715796E-003   0.0000000000000000        0.00000000    
  0.17979515076521718        0.0000000000000000        0.00000000    
  0.35327084971049083        0.0000000000000000        0.00000000    
  0.51733148899151038        0.0000000000000000        0.00000000    
  0.66778133938870321        0.0000000000000000        0.00000000    
  0.80143505816387584        0.0000000000000000        0.00000000    
  0.91557997374218847        0.0000000000000000        0.00000000    
   1.0087475857111967        0.0000000000000000        0.00000000    
   1.0799167280243329        0.0000000000000000        0.00000000    
   1.1291822208364362        0.0000000000000000        0.00000000    
   1.1569339176019251        0.0000000000000000        0.00000000    
   1.1643343695305106        0.0000000000000000        0.00000000    
   1.1526691333466832        0.0000000000000000        0.00000000    
   1.1236202792002974        0.0000000000000000        0.00000000    
   1.0788665169614140        0.0000000000000000        0.00000000    
   1.0201917295244749        0.0000000000000000        0.00000000    
  0.94931133443660720        0.0000000000000000        0.00000000    
  0.86787243124830304        0.0000000000000000        0.00000000    
  0.77743704051276596        0.0000000000000000        0.00000000    
  0.67942487834179821        0.0000000000000000        0.00000000    
  0.57518177229417666        0.0000000000000000        0.00000000    
  0.46590442080915317        0.0000000000000000        0.00000000    
  0.35273739460879711        0.0000000000000000        0.00000000    
  0.23670897239940966        0.0000000000000000        0.00000000    
  0.11881780624333595        0.0000000000000000        0.00000000    
   0.0000000000000000        0.0000000000000000        0.00000000    
   0.0000000000000000       0.11894355953881228        0.00000000    
 -0.11860023333272678       0.11848747195565452        0.00000000    
 -0.23628809501277265       0.11710280610882245        0.00000000    
 -0.35211853748324157       0.11476445345484769        0.00000000    
 -0.46512937061902299       0.11141623392877142        0.00000000    
 -0.57426386742130897       0.10699261751444748        0.00000000    
 -0.67842976421261358       0.10140300198931419        0.00000000    
 -0.77639045375436544        9.4547532119947250E-002   0.00000000    
 -0.86685565143679100        8.6314018226496383E-002   0.00000000    
 -0.94836645155099686        7.6584681943792435E-002   0.00000000    
  -1.0193994854135215        6.5253044707098987E-002   0.00000000    
  -1.0782857291988777        5.2218108365199231E-002   0.00000000    
  -1.1233029372849126        3.7429388537740409E-002   0.00000000    
  -1.1526843547164574        2.0863484128634611E-002   0.00000000    
  -1.1646640349771251        2.6028009226517373E-003   0.00000000    
  -1.1576426207138593       -1.7211842561321675E-002   0.00000000    
  -1.1301373907784247       -3.8276080681947822E-002   0.00000000    
  -1.0811577300269921       -6.0195303532130685E-002   0.00000000    
  -1.0100079710995993       -8.2387074873971206E-002   0.00000000    
 -0.91685752112069940      -0.10416792806819276        0.00000000    
 -0.80236981887291603      -0.12472182664973400        0.00000000    
 -0.66833563099832638      -0.14317048876792035        0.00000000    
 -0.51716194123666348      -0.15865455868867973        0.00000000    
 -0.35234402402228654      -0.17034973287688082        0.00000000    
 -0.17792364012497836      -0.17764926288358759        0.00000000    
   1.4020975625207374E-003 -0.18009460279943698        0.00000000    
  0.18068213533330788      -0.17758823547170388        0.00000000    
  0.35502705372705745      -0.17023108247192001        0.00000000    
  0.51968485433901401      -0.15848605681187494        0.00000000    
  0.67068408503557109      -0.14296172188604425        0.00000000    
  0.80447815854621751      -0.12448476575582239        0.00000000    
  0.91873512944891345      -0.10391581339325419        0.00000000    
   1.0116154381465385       -8.2130796959237945E-002   0.00000000    
   1.0825260015749323       -5.9947595219109008E-002   0.00000000    
   1.1312523451300733       -3.8042924213640597E-002   0.00000000    
   1.1585470480176967       -1.7002155040307845E-002   0.00000000    
   1.1653615900777394        2.7884848915963613E-003   0.00000000    
   1.1532188930878027        2.1020775511079247E-002   0.00000000    
   1.1236869252300092        3.7561376979522158E-002   0.00000000    
   1.0785569005997850        5.2323743477270958E-002   0.00000000    
   1.0195724772970496        6.5336803749996786E-002   0.00000000    
  0.94847011148922311        7.6647296311399604E-002   0.00000000    
  0.86690321692873185        8.6359843039801820E-002   0.00000000    
  0.77640211543539550        9.4577992970848443E-002   0.00000000    
  0.67841595144692557       0.10142167888848140        0.00000000    
  0.57423764414401335       0.10700108180696183        0.00000000    
  0.46509804832403778       0.11141721421853046        0.00000000    
  0.35208974174593977       0.11475946837833914        0.00000000    
  0.23626611132048206       0.11709393490062973        0.00000000    
  0.11858853752820496       0.11847615624046250        0.00000000    
   0.0000000000000000       0.11893153899893930        0.00000000    
   0.0000000000000000       0.23742525220992391        0.00000000    
 -0.11790942004000261       0.23651672249226735        0.00000000    
 -0.23492963976359413       0.23378292653753366        0.00000000    
 -0.35016413741647395       0.22915056215863908        0.00000000    
 -0.46265087018851853       0.22252897932090690        0.00000000    
 -0.57140467044574050       0.21376945626401853        0.00000000    
 -0.67531576562403495       0.20270444092104695        0.00000000    
 -0.77323320788997496       0.18912550905016590        0.00000000    
 -0.86383821043631137       0.17280752366244753        0.00000000    
 -0.94575341565369975       0.15351846177990167        0.00000000    
  -1.0174221065879177       0.13102226716259294        0.00000000    
  -1.0772221815685843       0.10513647946887385        0.00000000    
  -1.1233984716477838        7.5705787465093766E-002   0.00000000    
  -1.1541526231844208        4.2723922903834158E-002   0.00000000    
  -1.1676946827070807        6.2653673523290626E-003   0.00000000    
  -1.1622661017560967       -3.3323142208643693E-002   0.00000000    
  -1.1363889846139714       -7.5545869646179195E-002   0.00000000    
  -1.0887614894062541      -0.11953141556506809        0.00000000    
  -1.0187557815152186      -0.16420517819046246        0.00000000    
 -0.92612693365565335      -0.20812787440953553        0.00000000    
 -0.81170367293952350      -0.24967159820901885        0.00000000    
 -0.67690242811140733      -0.28705490757083302        0.00000000    
 -0.52439922924646698      -0.31844578853600486        0.00000000    
 -0.35752769686594027      -0.34224671445845534        0.00000000    
 -0.18064941825643147      -0.35704970691850957        0.00000000    
   1.4056672297001055E-003 -0.36207374568504713        0.00000000    
  0.18344290883216172      -0.35692513569444950        0.00000000    
  0.36021126684805138      -0.34200622176112416        0.00000000    
  0.52694654134454522      -0.31810275443453745        0.00000000    
  0.67923481200298930      -0.28663128561782902        0.00000000    
  0.81381841159253698      -0.24919163273786632        0.00000000    
  0.92797033999721568      -0.20761660061834197        0.00000000    
   1.0203516106581003      -0.16369034085663789        0.00000000    
   1.0900848839744182      -0.11903063655246331        0.00000000    
   1.1374815193615306       -7.5081606801713593E-002   0.00000000    
   1.1631258287424338       -3.2901226206331284E-002   0.00000000    
   1.1683681554465446        6.6319493476354038E-003   0.00000000    
   1.1546505613491551        4.3038867612281907E-002   0.00000000    
   1.1237627098419678        7.5964373031189747E-002   0.00000000    
   1.0774676344511096       0.10534711935861521        0.00000000    
   1.0175815646125002       0.13118519585158636        0.00000000    
  0.94584121783050112       0.15364289433744804        0.00000000    
  0.86387773952590241       0.17289589786281240        0.00000000    
  0.77323624617209452       0.18918581517206776        0.00000000    
  0.67529778153140030       0.20273976941001917        0.00000000    
  0.57137435873317921       0.21378600713510715        0.00000000    
  0.46261768159526523       0.22252984896668748        0.00000000    
  0.35013371725391584       0.22914039277248119        0.00000000    
  0.23490699705452764       0.23376465017471437        0.00000000    
  0.11789731959838473       0.23649398181003908        0.00000000    
   0.0000000000000000       0.23740086042430483        0.00000000    
   0.0000000000000000       0.35495240304649939        0.00000000    
 -0.11672312236656429       0.35362334257404399        0.00000000    
 -0.23261176611603857       0.34958639816389864        0.00000000    
 -0.34679764819106140       0.34276869795110565        0.00000000    
 -0.45840131298939124       0.33300246795830768        0.00000000    
 -0.56644422772963599       0.32009390839140195        0.00000000    
 -0.66992231618968157       0.30377039681081069        0.00000000    
 -0.76767539371772953       0.28373129568837796        0.00000000    
 -0.85849910647836758       0.25963167312129487        0.00000000    
 -0.94099419010512420       0.23110581975944489        0.00000000    
  -1.0136985359457278       0.19780916206808394        0.00000000    
  -1.0749527649598511       0.15940510194132812        0.00000000    
  -1.1230292686673820       0.11569116918255901        0.00000000    
  -1.1560698999548320        6.6534531211414075E-002   0.00000000    
  -1.1721795667692032        1.2107689201508098E-002   0.00000000    
  -1.1695200963206485       -4.7252315198344781E-002   0.00000000    
  -1.1463112261156443      -0.11070148735783968        0.00000000    
  -1.1011879570250884      -0.17712536922009936        0.00000000    
  -1.0330207385953327      -0.24478296150979251        0.00000000    
 -0.94159349120548930      -0.31160500054897994        0.00000000    
 -0.82717345966502920      -0.37503658174768240        0.00000000    
 -0.69137732120450535      -0.43228612773673686        0.00000000    
 -0.53652471219933684      -0.48056919910634444        0.00000000    
 -0.36634278414762983      -0.51717558919712958        0.00000000    
 -0.18525254903522911      -0.54008817211375448        0.00000000    
   1.4309520077790915E-003 -0.54777269393123262        0.00000000    
  0.18806581823090240      -0.53989712219231445        0.00000000    
  0.36906781944119321      -0.51680342067430940        0.00000000    
  0.53907044774243940      -0.48004228318274217        0.00000000    
  0.69372569607873313      -0.43163409868438996        0.00000000    
  0.82925410162189772      -0.37429964519127840        0.00000000    
  0.94342052592253089      -0.31082575823251946        0.00000000    
   1.0345556555232269      -0.24399639767390074        0.00000000    
   1.1024709422365879      -0.17637195035363093        0.00000000    
   1.1473335237847841      -0.10999831695880082        0.00000000    
   1.1703320453488788       -4.6626150284531008E-002   0.00000000    
   1.1727902445636760        1.2657547813179619E-002   0.00000000    
   1.1565261707535919        6.6996140933102633E-002   0.00000000    
   1.1233466410220381       0.11607568819617924        0.00000000    
   1.0751682669175759       0.15971046414501641        0.00000000    
   1.0138277098007837       0.19804969144721832        0.00000000    
  0.94106342090299044       0.23128425057850985        0.00000000    
  0.85852146307461541       0.25976119638933987        0.00000000    
  0.76766835571324699       0.28381633819221358        0.00000000    
  0.66989584355703002       0.30382144595821314        0.00000000    
  0.56640917199440033       0.32011564936395137        0.00000000    
  0.45836456724333757       0.33300271442920476        0.00000000    
  0.34676536176119049       0.34275192402760191        0.00000000    
  0.23258796616886115       0.34955846243571148        0.00000000    
  0.11671056069445662       0.35358848074781685        0.00000000    
   0.0000000000000000       0.35491547032394888        0.00000000    
   0.0000000000000000       0.47102300537188124        0.00000000    
 -0.11500471928668440       0.46928174936198153        0.00000000    
 -0.22923166362860301       0.46404474665774220        0.00000000    
 -0.34190053655206587       0.45516627109183155        0.00000000    
 -0.45216219884427783       0.44247138773166339        0.00000000    
 -0.55915755532767453       0.42566442455222436        0.00000000    
 -0.66189296022432287       0.40441453735260646        0.00000000    
 -0.75935082790010422       0.37829926201864456        0.00000000    
 -0.85032152495525937       0.34685927634773739        0.00000000    
 -0.93354948973876739       0.30960242244064662        0.00000000    
  -1.0075477890667566       0.26601635955927316        0.00000000    
  -1.0707592527623722       0.21566474936973509        0.00000000    
  -1.1213950950111307       0.15814501687860782        0.00000000    
  -1.1575884975766004        9.3315863243668584E-002   0.00000000    
  -1.1773248844487338        2.1173553204079799E-002   0.00000000    
  -1.1785509219488992       -5.7750473476752148E-002   0.00000000    
  -1.1593182677646747      -0.14264371866847075        0.00000000    
  -1.1177567783767755      -0.23186676543599194        0.00000000    
  -1.0526057497996040      -0.32335868530969758        0.00000000    
 -0.96290521870675816      -0.41415593194059042        0.00000000    
 -0.84897133196790298      -0.50083844899626262        0.00000000    
 -0.71174101647199917      -0.57950959794297352        0.00000000    
 -0.55387687627158810      -0.64606136444817042        0.00000000    
 -0.37890613136362838      -0.69683498528763343        0.00000000    
 -0.19188112173666261      -0.72854291079394218        0.00000000    
   1.4506371594983733E-003 -0.73933210598468879        0.00000000    
  0.19475571933416730      -0.72827654930970331        0.00000000    
  0.38165385443119187      -0.69632301989441170        0.00000000    
  0.55645921184768909      -0.64532955810828718        0.00000000    
  0.71406894402431997      -0.57861069059443992        0.00000000    
  0.85104382089462338      -0.49982521912984629        0.00000000    
  0.96466458742156325      -0.41308625544870031        0.00000000    
   1.0540893145528079      -0.32229463382600604        0.00000000    
   1.1189459178583334      -0.23084447718687745        0.00000000    
   1.1602689967514848      -0.14171031954241065        0.00000000    
   1.1792708154045510       -5.6913353071786715E-002   0.00000000    
   1.1778681062665455        2.1890399262999266E-002   0.00000000    
   1.1579721431540086        9.3924468800273900E-002   0.00000000    
   1.1216616142513531       0.15863856489736966        0.00000000    
   1.0709259761634840       0.21606274884821747        0.00000000    
   1.0076442475646732       0.26632084472027129        0.00000000    
  0.93359017758423424       0.30983261122841588        0.00000000    
  0.85032551826371139       0.34702061042972399        0.00000000    
  0.75932928039079139       0.37840742916495751        0.00000000    
  0.66185754155851484       0.40447576768099891        0.00000000    
  0.55911628113389678       0.42569042300965332        0.00000000    
  0.45212178105393347       0.44246821036023593        0.00000000    
  0.34186614234843199       0.45514243814111938        0.00000000    
  0.22920670118956413       0.46400595174245102        0.00000000    
  0.11499171986829436       0.46923454545936238        0.00000000    
   0.0000000000000000       0.47097285366727110        0.00000000    
   0.0000000000000000       0.58504556995501966        0.00000000    
 -0.11268988996327900       0.58295490071368339        0.00000000    
 -0.22468869503335587       0.57659845112657948        0.00000000    
 -0.33526994356443796       0.56586379395150188        0.00000000    
 -0.44370893596560335       0.55047562460659372        0.00000000    
 -0.54917529941333343       0.53012301157037200        0.00000000    
 -0.65083608623181399       0.50435324461220943        0.00000000    
 -0.74768438793670433       0.47266782506015181        0.00000000    
 -0.83869455970200146       0.43447268106810205        0.00000000    
 -0.92260420384296271       0.38912772335974255        0.00000000    
 -0.99810158875001920       0.33598783702302570        0.00000000    
  -1.0635897402824461       0.27439397845682562        0.00000000    
  -1.1173856722960760       0.20384865023212945        0.00000000    
  -1.1575111431121841       0.12393218803747863        0.00000000    
  -1.1818888837036026        3.4672436974212018E-002   0.00000000    
  -1.1882447107989975       -6.3666415483762992E-002   0.00000000    
  -1.1742545928898822      -0.16994947563047258        0.00000000    
  -1.1377653129661518      -0.28261070894302009        0.00000000    
  -1.0767132379151583      -0.39881678073963445        0.00000000    
 -0.98998055788186101      -0.51512998723709369        0.00000000    
 -0.87683083140089724      -0.62694695037099168        0.00000000    
 -0.73838178486807238      -0.72907940581488706        0.00000000    
 -0.57659273017737844      -0.81614370172184869        0.00000000    
 -0.39561018111278856      -0.88270489484581804        0.00000000    
 -0.20067513368434367      -0.92463201284919150        0.00000000    
   1.4889163131547741E-003 -0.93873776830001021        0.00000000    
  0.20360162349162500      -0.92428763183692242        0.00000000    
  0.39842070631280191      -0.88202810980353330        0.00000000    
  0.57918273481698390      -0.81519080696903190        0.00000000    
  0.74072501659470369      -0.72790040587662885        0.00000000    
  0.87884224104164343      -0.62562655235547471        0.00000000    
  0.99168956823937893      -0.51375195931746309        0.00000000    
   1.0780839028173974      -0.39744693122751257        0.00000000    
   1.1388615151284958      -0.28132533062663195        0.00000000    
   1.1750816478515185      -0.16877160883087933        0.00000000    
   1.1888680840973511       -6.2639245480573702E-002   0.00000000    
   1.1823291061012495        3.5559056019815079E-002   0.00000000    
   1.1578186221002371       0.12466334032418344        0.00000000    
   1.1175808506242415       0.20444907856234865        0.00000000    
   1.0637060500752875       0.27486376205453156        0.00000000    
  0.99815543479290425       0.33635326675945426        0.00000000    
  0.92261593533920427       0.38939485281853570        0.00000000    
  0.83867657093127179       0.43466348932141274        0.00000000    
  0.74764845360891108       0.47279000445055613        0.00000000    
  0.65079124080507011       0.50442324498747892        0.00000000    
  0.54912806028801531       0.53014848924329960        0.00000000    
  0.44366548269956585       0.55046832579018690        0.00000000    
  0.33523363948142126       0.56583090970886263        0.00000000    
  0.22466315474405835       0.57654851197656454        0.00000000    
  0.11267652420629289       0.58289470352410766        0.00000000    
   0.0000000000000000       0.58498204639294904        0.00000000    
   0.0000000000000000       0.69642423990918467        0.00000000    
 -0.10972221517421381       0.69398938207266636        0.00000000    
 -0.21883167002891232       0.68667327560576619        0.00000000    
 -0.32672163595072651       0.67426122928757515        0.00000000    
 -0.43271313055902705       0.65650972084851367        0.00000000    
 -0.53614167333429230       0.63298486500735585        0.00000000    
 -0.63619736514017389       0.60320891190940096        0.00000000    
 -0.73208190686964048       0.56654604161312538        0.00000000    
 -0.82277688796909998       0.52230065586498697        0.00000000    
 -0.90725262107455107       0.46968616199352603        0.00000000    
 -0.98418364128712932       0.40785883713902782        0.00000000    
  -1.0521854066195377       0.33601392590537638        0.00000000    
  -1.1095060678447830       0.25334632351154168        0.00000000    
  -1.1542770890558502       0.15933203071317831        0.00000000    
  -1.1842216541028157        5.3595919994333767E-002   0.00000000    
  -1.1969328394268195       -6.3521870158795957E-002   0.00000000    
  -1.1897054682988748      -0.19131049852820659        0.00000000    
  -1.1597673444109229      -0.32767608290983585        0.00000000    
  -1.1046529537689174      -0.46991687035103147        0.00000000    
  -1.0219711163692693      -0.61344341748407727        0.00000000    
 -0.91092434677379619      -0.75282902334667223        0.00000000    
 -0.77120771638909946      -0.88136202092973415        0.00000000    
 -0.60525101578605345      -0.99160585692280745        0.00000000    
 -0.41673572949569410       -1.0767395928736976        0.00000000    
 -0.21192954002679545       -1.1303375717600355        0.00000000    
   1.5280441508819459E-003  -1.1486528646554022        0.00000000    
  0.21493839344397350       -1.1298946130149818        0.00000000    
  0.41959444970555404       -1.0758952877501251        0.00000000    
  0.60789313484510088      -0.99038336047587816        0.00000000    
  0.77351483746655059      -0.87987085177096447        0.00000000    
  0.91290545534225709      -0.75116295986534354        0.00000000    
   1.0235563961621712      -0.61171282693568707        0.00000000    
   1.1059155932666254      -0.46823859761757031        0.00000000    
   1.1607062661105614      -0.32610094723154875        0.00000000    
   1.1904038314444354      -0.18991268324374164        0.00000000    
   1.1974176171167055       -6.2297381473898024E-002   0.00000000    
   1.1845556570584617        5.4619146071090863E-002   0.00000000    
   1.1544863390500280       0.16018407238546040        0.00000000    
   1.1096296301932880       0.25402385082539819        0.00000000    
   1.0522425797091639       0.33655186835597040        0.00000000    
  0.98419591260692130       0.40826347359412896        0.00000000    
  0.90723386250966997       0.46998722920382680        0.00000000    
  0.82273814237481302       0.52250723370603369        0.00000000    
  0.73203318491010338       0.56668037337383936        0.00000000    
  0.63614404554232462       0.60328026868829232        0.00000000    
  0.53609083913419764       0.63300889461059828        0.00000000    
  0.43266723488153552       0.65649514575259338        0.00000000    
  0.32668526727299213       0.67421894517281478        0.00000000    
  0.21880582703870671       0.68661144687708786        0.00000000    
  0.10970916290213581       0.69391610924124547        0.00000000    
   0.0000000000000000       0.69634737398953128        0.00000000    
   0.0000000000000000       0.80442392769696158        0.00000000    
 -0.10602338702026297       0.80173628241995898        0.00000000    
 -0.21153948464333386       0.79355291340484946        0.00000000    
 -0.31600444094502905       0.77973749886614585        0.00000000    
 -0.41889691122028738       0.75991840048458548        0.00000000    
 -0.51958453341865940       0.73369333362897382        0.00000000    
 -0.61747197714324320       0.70044456070695482        0.00000000    
 -0.71177419040967982       0.65949812808428532        0.00000000    
 -0.80173904288240927       0.61000938123650439        0.00000000    
 -0.88633811334765433       0.55105321622487136        0.00000000    
 -0.96453899310042457       0.48162465625034534        0.00000000    
  -1.0349337835675303       0.40064563304421774        0.00000000    
  -1.0960317776681667       0.30713423879411156        0.00000000    
  -1.1458498770316059       0.20013419942226671        0.00000000    
  -1.1822356867464314        7.9125085384640345E-002   0.00000000    
  -1.2024284704912447       -5.6146111601000658E-002   0.00000000    
  -1.2035169888555382      -0.20482415970921700        0.00000000    
  -1.1820936877411881      -0.36552290176339763        0.00000000    
  -1.1346619617159890      -0.53461522833210717        0.00000000    
  -1.0583943612617064      -0.70769356310782217        0.00000000    
 -0.95041403594256457      -0.87760504341163592        0.00000000    
 -0.81072858665273839       -1.0359871565551060        0.00000000    
 -0.64004388217437436       -1.1736212065908762        0.00000000    
 -0.44290026504632934       -1.2803822306192603        0.00000000    
 -0.22596130280215873       -1.3484391721985625        0.00000000    
   1.5678278250160311E-003  -1.3715370668557938        0.00000000    
  0.22906361956450125       -1.3479156396929683        0.00000000    
  0.44584520607828793       -1.2793109902659496        0.00000000    
  0.64269848684233333       -1.1721187078468327        0.00000000    
  0.81305428016882564       -1.0341120804616297        0.00000000    
  0.95227473436814269      -0.87553187923479370        0.00000000    
   1.0598707442242223      -0.70558992889649419        0.00000000    
   1.1357317713255131      -0.53258078556761201        0.00000000    
   1.1828682668809458      -0.36368498773550012        0.00000000    
   1.2040345422208913      -0.20319153839521112        0.00000000    
   1.2027710611591322       -5.4767880698850011E-002   0.00000000    
   1.1824393903481472        8.0284231092662653E-002   0.00000000    
   1.1459626850320810       0.20106597009990518        0.00000000    
   1.0960775193090224       0.30788479115163075        0.00000000    
   1.0349352163560406       0.40122124862004233        0.00000000    
  0.96451194931386985       0.48206499796469571        0.00000000    
  0.88629189189787538       0.55136878576962411        0.00000000    
  0.80168468398976478       0.61022958125137761        0.00000000    
  0.71171476017110480       0.65963388542006685        0.00000000    
  0.61741540508132331       0.70051623140547237        0.00000000    
  0.51953131581259404       0.73371120949151958        0.00000000    
  0.41885253895182839       0.75989619529983010        0.00000000    
  0.31596859961398849       0.77968478693259469        0.00000000    
  0.21151543965225272       0.79347919049646753        0.00000000    
  0.10601082133460775       0.80165063377288803        0.00000000    
   0.0000000000000000       0.80433381966333117        0.00000000    
   0.0000000000000000       0.90833762651606997        0.00000000    
 -0.10153974294597787       0.90538663952760046        0.00000000    
 -0.20265444247600722       0.89653427916312278        0.00000000    
 -0.30293723923029492       0.88150481133975278        0.00000000    
 -0.40190708285631138       0.86001432633409225        0.00000000    
 -0.49913388596238978       0.83151275641407962        0.00000000    
 -0.59403495894095493       0.79541457666102688        0.00000000    
 -0.68609843646505042       0.75089472327368989        0.00000000    
 -0.77457195119724398       0.69705207171232242        0.00000000    
 -0.85876495325221958       0.63280351439821569        0.00000000    
 -0.93764128416514003       0.55695248229580419        0.00000000    
  -1.0101637477844478       0.46823597158151281        0.00000000    
  -1.0748134359897861       0.36529248969301664        0.00000000    
  -1.1299365077661245       0.24691802292126133        0.00000000    
  -1.1731979034469853       0.11198936627318938        0.00000000    
  -1.2020137587786937       -4.0000859174359388E-002   0.00000000    