 <VTKFile type="UnstructuredGrid" version="0.1" byte_order="BigEndian">
 <UnstructuredGrid>
 <Piece NumberOfPoints="        2601 " NumberOfCells="        2500 ">
 <PointData Scalars="scalars">
 <DataArray type="Float32" NumberOfComponents="3" Name="Velocity" Format="ascii">
   0.0000000000000000        0.0000000000000000        0.00000000    
 -0.13511695728875600        0.0000000000000000        0.00000000    
 -0.27013077577053402        0.0000000000000000        0.00000000    
 -0.40480986399221847        0.0000000000000000        0.00000000    
 -0.53905661290816664        0.0000000000000000        0.00000000    
 -0.67237724944238642        0.0000000000000000        0.00000000    
 -0.80452909906363401        0.0000000000000000        0.00000000    
 -0.93457524762606725        0.0000000000000000        0.00000000    
  -1.0619031364333604        0.0000000000000000        0.00000000    
  -1.1848692724604655        0.0000000000000000        0.00000000    
  -1.3021385594377302        0.0000000000000000        0.00000000    
  -1.4110024388647524        0.0000000000000000        0.00000000    
  -1.5089027286099519        0.0000000000000000        0.00000000    
  -1.5917094238942733        0.0000000000000000        0.00000000    
  -1.6551705738669884        0.0000000000000000        0.00000000    
  -1.6937875637825521        0.0000000000000000        0.00000000    
  -1.7018323040595020        0.0000000000000000        0.00000000    
  -1.6738428396274088        0.0000000000000000        0.00000000    
  -1.6046439520541491        0.0000000000000000        0.00000000    
  -1.4916823354222020        0.0000000000000000        0.00000000    
  -1.3333162691183624        0.0000000000000000        0.00000000    
  -1.1317674065082612        0.0000000000000000        0.00000000    
 -0.89009488322785213        0.0000000000000000        0.00000000    
 -0.61560169495037242        0.0000000000000000        0.00000000    
 -0.31637295451839220        0.0000000000000000        0.00000000    
  -4.4508315188112636E-003   0.0000000000000000        0.00000000    
  0.30784752594948073        0.0000000000000000        0.00000000    
  0.60773364846769728        0.0000000000000000        0.00000000    
  0.88319586800233207        0.0000000000000000        0.00000000    
   1.1259610916541689        0.0000000000000000        0.00000000    
   1.3284132137836864        0.0000000000000000        0.00000000    
   1.4877585409529526        0.0000000000000000        0.00000000    
   1.6015668067276532        0.0000000000000000        0.00000000    
   1.6715838327082795        0.0000000000000000        0.00000000    
   1.7003523962743448        0.0000000000000000        0.00000000    
   1.6928989268915606        0.0000000000000000        0.00000000    
   1.6547998865385947        0.0000000000000000        0.00000000    
   1.5916574929581997        0.0000000000000000        0.00000000    
   1.5091018590290453        0.0000000000000000        0.00000000    
   1.4113240900014679        0.0000000000000000        0.00000000    
   1.3025484898615103        0.0000000000000000        0.00000000    
   1.1852949666213426        0.0000000000000000        0.00000000    
   1.0623331984777145        0.0000000000000000        0.00000000    
  0.93497062305227907        0.0000000000000000        0.00000000    
  0.80488934738751960        0.0000000000000000        0.00000000    
  0.67268169010886203        0.0000000000000000        0.00000000    
  0.53930838630175193        0.0000000000000000        0.00000000    
  0.40499841985652651        0.0000000000000000        0.00000000    
  0.27025907526321707        0.0000000000000000        0.00000000    
  0.13518053826570475        0.0000000000000000        0.00000000    
   0.0000000000000000        0.0000000000000000        0.00000000    
   0.0000000000000000       0.13469348477796780        0.00000000    
 -0.13419617123133687       0.13462089063457108        0.00000000    
 -0.26823946601166443       0.13443746912495938        0.00000000    
 -0.40204567517920031       0.13404907395015023        0.00000000    
 -0.53527349365583676       0.13342673791832940        0.00000000    
 -0.66778064869588760       0.13240229645847687        0.00000000    
 -0.79888955412642948       0.13085969929540525        0.00000000    
 -0.92822634605226262       0.12852447925876689        0.00000000    
  -1.0545659338132833       0.12514423225814741        0.00000000    
  -1.1770326971421663       0.12028989829896707        0.00000000    
  -1.2935491451869512       0.11349706361922945        0.00000000    
  -1.4023206596625399       0.10413955214340671        0.00000000    
  -1.5000331926916870        9.1474486813875239E-002   0.00000000    
  -1.5834300823337681        7.4730307824014006E-002   0.00000000    
  -1.6476869969824643        5.2988959353164146E-002   0.00000000    
  -1.6877519439460975        2.5694172199249816E-002   0.00000000    
  -1.6977305751462006       -7.6696145182859488E-003   0.00000000    
  -1.6715675508175145       -4.6481696899247311E-002   0.00000000    
  -1.6045967618230408       -8.9686811428148994E-002   0.00000000    
  -1.4928029258405164      -0.13506748184699960        0.00000000    
  -1.3358569928370088      -0.18024336672283622        0.00000000    
  -1.1344505512153611      -0.22271079454783571        0.00000000    
 -0.89329449265825500      -0.26011665123435890        0.00000000    
 -0.61784590739023171      -0.28982399172000717        0.00000000    
 -0.31805837322799546      -0.30919115628402549        0.00000000    
  -4.5025140514613118E-003 -0.31628570129779499        0.00000000    
  0.30921966317655158      -0.30973370883313273        0.00000000    
  0.60989767846052767      -0.29082930239285520        0.00000000    
  0.88643315405530154      -0.26116726217556896        0.00000000    
   1.1285913549230393      -0.22375502633317157        0.00000000    
   1.3310997579050994      -0.18120435583812500        0.00000000    
   1.4888936352976678      -0.13593369804018773        0.00000000    
   1.6015900846596214       -9.0569857813303192E-002   0.00000000    
   1.6694221607078727       -4.7278076052314148E-002   0.00000000    
   1.6962991445230553       -8.3662940871681631E-003   0.00000000    
   1.6869787193882266        2.5141374709243380E-002   0.00000000    
   1.6473444640654942        5.2593115527568540E-002   0.00000000    
   1.5834385442514667        7.4456400324488164E-002   0.00000000    
   1.5002339136875309        9.1305073782467119E-002   0.00000000    
   1.4026669368837315       0.10404088814929396        0.00000000    
   1.2939482170740377       0.11345465358198019        0.00000000    
   1.1774658413173709       0.12028247224487240        0.00000000    
   1.0549823146100019       0.12516405374524037        0.00000000    
  0.92862236943349108       0.12855970175224335        0.00000000    
  0.79923790774367098       0.13090727361829305        0.00000000    
  0.66808376135877456       0.13245577070347347        0.00000000    
  0.53551694339299316       0.13348559383012348        0.00000000    
  0.40223294308197532       0.13410961736391069        0.00000000    
  0.26836354994181866       0.13450036601847964        0.00000000    
  0.13425925988805570       0.13468370749502129        0.00000000    
   0.0000000000000000       0.13475733751635038        0.00000000    
   0.0000000000000000       0.26750542751171386        0.00000000    
 -0.13140154314475214       0.26740784769525733        0.00000000    
 -0.26269575150805918       0.26698920022223005        0.00000000    
 -0.39365179233453712       0.26626077709266655        0.00000000    
 -0.52417903018377510       0.26497127411035426        0.00000000    
 -0.65380578669305112       0.26299285323791399        0.00000000    
 -0.78233064426857113       0.25990408479827032        0.00000000    
 -0.90888279104588598       0.25537020922959491        0.00000000    
  -1.0329633582777524       0.24871983086965163        0.00000000    
  -1.1530704173813462       0.23928929212951452        0.00000000    
  -1.2681103120397885       0.22605517811497511        0.00000000    
  -1.3756171126464440       0.20786091349652139        0.00000000    
  -1.4734365116833286       0.18328621251749294        0.00000000    
  -1.5577291463915706       0.15060925511709061        0.00000000    
  -1.6246569064067000       0.10829582809320858        0.00000000    
  -1.6687672770203950        5.4563754481277878E-002   0.00000000    
  -1.6842324105325157       -1.1094307271444228E-002   0.00000000    
  -1.6646357386951722       -8.8815584704930284E-002   0.00000000    
  -1.6033276341828964      -0.17563071076437387        0.00000000    
  -1.4967619207938807      -0.26748203495796719        0.00000000    
  -1.3425691904166213      -0.35896638872528785        0.00000000    
  -1.1430463846850856      -0.44491593992051531        0.00000000    
 -0.90159400106314835      -0.52051887500383887        0.00000000    
 -0.62535699439894943      -0.58110629293898342        0.00000000    
 -0.32206055422706636      -0.62099176646425913        0.00000000    
  -5.0181879171018184E-003 -0.63508225611976343        0.00000000    
  0.31274006556116146      -0.62241652417798266        0.00000000    
  0.61704741864550694      -0.58313079255686107        0.00000000    
  0.89459448988206081      -0.52294725195113811        0.00000000    
   1.1374995138014354      -0.44703718829453470        0.00000000    
   1.3378705549667682      -0.36080055812107326        0.00000000    
   1.4930861799088340      -0.26934590982253970        0.00000000    
   1.6005788351520891      -0.17734565377584360        0.00000000    
   1.6627107235308802       -9.0465138247527541E-002   0.00000000    
   1.6831350664833757       -1.2479443139082332E-002   0.00000000    
   1.6681912607024323        5.3519879359730987E-002   0.00000000    
   1.6245041503034265       0.10753710994599411        0.00000000    
   1.5578158890972209       0.15010772817860280        0.00000000    
   1.4737099373662577       0.18296547678439248        0.00000000    
   1.3759712339842656       0.20768732023104278        0.00000000    
   1.2685231421945233       0.22597619379732928        0.00000000    
   1.1534831295341561       0.23928448599751817        0.00000000    
   1.0333708935180910       0.24875897267044927        0.00000000    
  0.90925273755122238       0.25544405750311311        0.00000000    
  0.78266518993602174       0.25999610389785610        0.00000000    
  0.65408711332242475       0.26310034265253346        0.00000000    
  0.52441114078589735       0.26508499376690153        0.00000000    
  0.39382526369692739       0.26638127779656323        0.00000000    
  0.26281373761665733       0.26711080901700601        0.00000000    
  0.13145995850592479       0.26753251863998334        0.00000000    
   0.0000000000000000       0.26762893014973632        0.00000000    
   0.0000000000000000       0.39668535279749845        0.00000000    
 -0.12683176953844705       0.39646235941509511        0.00000000    
 -0.25350051369014298       0.39589876497847437        0.00000000    
 -0.37991638367609809       0.39472424630538649        0.00000000    
 -0.50575184417323404       0.39287162529270148        0.00000000    
 -0.63089782886402490       0.38986636364534527        0.00000000    
 -0.75474940274576563       0.38540812430995847        0.00000000    
 -0.87705987791024986       0.37872990750651153        0.00000000    
 -0.99678701984108864       0.36916895472507100        0.00000000    
  -1.1133673628099257       0.35552867959046452        0.00000000    
  -1.2250817490887018       0.33657117681516724        0.00000000    
  -1.3307506758706180       0.31052174237207675        0.00000000    
  -1.4276168091265553       0.27531201069821387        0.00000000    
  -1.5133507106368944       0.22861108135906746        0.00000000    
  -1.5836509648694008       0.16752309718219430        0.00000000    
  -1.6341265979257100        8.9923561950655401E-002   0.00000000    
  -1.6585436674107163       -6.5708478077183708E-003   0.00000000    
  -1.6499383580375946      -0.12153997101736065        0.00000000    
  -1.6006425032702889      -0.25350923968299655        0.00000000    
  -1.5023446167241750      -0.39446607155943253        0.00000000    
  -1.3539471970751586      -0.53457147747908751        0.00000000    
  -1.1565629951762697      -0.66621684244319168        0.00000000    
 -0.91471555842845154      -0.78251678440254901        0.00000000    
 -0.63501342567418317      -0.87504652071736888        0.00000000    
 -0.32877626866726467      -0.93658413918348760        0.00000000    
  -5.4937177259108327E-003 -0.95981380633901214        0.00000000    
  0.31786656324214618      -0.93880251430462003        0.00000000    
  0.62609168973958040      -0.87927628533751412        0.00000000    
  0.90802690938809605      -0.78628304784448921        0.00000000    
   1.1509279143933033      -0.66950641302028968        0.00000000    
   1.3497990008482068      -0.53757244452715125        0.00000000    
   1.4990546268672280      -0.39704424976506197        0.00000000    
   1.5982467994169434      -0.25633110726080272        0.00000000    
   1.6486947792213777      -0.12405850896379671        0.00000000    
   1.6579003697025316       -8.5149516697247754E-003   0.00000000    
   1.6339376461014101        8.8462981104917529E-002   0.00000000    
   1.5837045990968042       0.16651523834600646        0.00000000    
   1.5135939705747210       0.22792957050100307        0.00000000    
   1.4279418232112784       0.27490282164906504        0.00000000    
   1.3311395719368788       0.31029202471517797        0.00000000    
   1.2254762680974531       0.33648398504574134        0.00000000    
   1.1137651954938073       0.35552888518094933        0.00000000    
  0.99715502915723830       0.36923808501937283        0.00000000    
  0.87740180930652456       0.37883743389606972        0.00000000    
  0.75504586324376943       0.38554733697885946        0.00000000    
  0.63115387801565048       0.39002028983684650        0.00000000    
  0.50595629998863656       0.39303971749398242        0.00000000    
  0.38007339740753598       0.39489645575406662        0.00000000    
  0.25360428249796507       0.39607739516962892        0.00000000    
  0.12688455235051252       0.39664056567402683        0.00000000    
   0.0000000000000000       0.39686651826128144        0.00000000    
   0.0000000000000000       0.52035739566857242        0.00000000    
 -0.12052453540327802       0.52014768510836151        0.00000000    
 -0.24091746534295833       0.51927617661099568        0.00000000    
 -0.36093744150486601       0.51778374337831257        0.00000000    
 -0.48049440869670240       0.51520561727747105        0.00000000    
 -0.59915944429112811       0.51134445191507449        0.00000000    
 -0.71681223557662255       0.50543545911268017        0.00000000    
 -0.83273384350627067       0.49693571148339560        0.00000000    
 -0.94668246909568465       0.48463997088476496        0.00000000    
  -1.0575003103843157       0.46745689710116539        0.00000000    
  -1.1646839772132311       0.44354205755907833        0.00000000    
  -1.2663997973874632       0.41093664929089085        0.00000000    
  -1.3616096998269813       0.36697417446286928        0.00000000    
  -1.4473844748202538       0.30845862303227917        0.00000000    
  -1.5214731197992983       0.23206547618899190        0.00000000    
  -1.5790826926005599       0.13346740210936356        0.00000000    
  -1.6150484757562593        1.0269168573316166E-002   0.00000000    
  -1.6220138734476650      -0.14001890569607611        0.00000000    
  -1.5912430697692179      -0.31509598108351561        0.00000000    
  -1.5123491488757286      -0.51007016731997046        0.00000000    
  -1.3719646539531107      -0.70774833562872397        0.00000000    
  -1.1745471630193429      -0.88784072562311966        0.00000000    
 -0.93045761689668793       -1.0468289406429880        0.00000000    
 -0.64384897586325174       -1.1770442028960713        0.00000000    
 -0.32760683355664666       -1.2570648267747240        0.00000000    
  -7.2886696236657495E-003  -1.2829329096939790        0.00000000    
  0.31577293398294476       -1.2621043712909124        0.00000000    
  0.63405567968108345       -1.1824813714169511        0.00000000    
  0.92249347948715421       -1.0534500461863012        0.00000000    
   1.1702390884079046      -0.89298508479966954        0.00000000    
   1.3682612279357789      -0.71098604733680426        0.00000000    
   1.5095324816643474      -0.51415656587367486        0.00000000    
   1.5902599968399658      -0.31913750858472051        0.00000000    
   1.6216569809577224      -0.14309608946805838        0.00000000    
   1.6150638525263170        7.9111600391074104E-003   0.00000000    
   1.5792677396858241       0.13179670953855038        0.00000000    
   1.5217894419967393       0.23089386781393131        0.00000000    
   1.4477388956472781       0.30771313723501142        0.00000000    
   1.3619981049113032       0.36651322187478969        0.00000000    
   1.2667779166024800       0.41070509896276097        0.00000000    
   1.1650585714779020       0.44345460041271229        0.00000000    
   1.0578451806463478       0.46748377832376725        0.00000000    
  0.94700613151286694       0.48473345671528906        0.00000000    
  0.83301884532213610       0.49708362080223556        0.00000000    
  0.71706591144928244       0.50561108565697577        0.00000000    
  0.59937026362316925       0.51154523207351332        0.00000000    
  0.48066777259929250       0.51541590424499562        0.00000000    
  0.36106637159374688       0.51800563392098786        0.00000000    
  0.24100523682173794       0.51949952921126752        0.00000000    
  0.12056787320815986       0.52037658859483815        0.00000000    
   0.0000000000000000       0.52058398449096854        0.00000000    
   0.0000000000000000       0.63703914751125235        0.00000000    
 -0.11264875684835562       0.63664022877299220        0.00000000    
 -0.22509474282772476       0.63562355181669694        0.00000000    
 -0.33721098665999877       0.63357359036980920        0.00000000    
 -0.44866756640250188       0.63043031848959863        0.00000000    
 -0.55936885836710593       0.62548707798761238        0.00000000    
 -0.66879488708170065       0.61837265113752116        0.00000000    
 -0.77684145926707704       0.60796769523228678        0.00000000    
 -0.88271531901593969       0.59343146568726435        0.00000000    
 -0.98626548837127315       0.57303440265847660        0.00000000    
  -1.0863002555933183       0.54518397229776716        0.00000000    
  -1.1825645172297394       0.50727579780357657        0.00000000    
  -1.2732348204190445       0.45651620817289462        0.00000000    
  -1.3577507348835898       0.38920824890011518        0.00000000    
  -1.4331168460160468       0.30077156972901042        0.00000000    
  -1.4975375611172179       0.18679255113309234        0.00000000    
  -1.5455791660245766        4.0952352528728406E-002   0.00000000    
  -1.5706340688442300      -0.13868085545571529        0.00000000    
  -1.5642610797143075      -0.35357690349669491        0.00000000    
  -1.5152527310270052      -0.59949060748302330        0.00000000    
  -1.4144232457257051      -0.85954098393049150        0.00000000    
  -1.2239001074629710       -1.1239878216455672        0.00000000    
 -0.93810464008179784       -1.3405659769904712        0.00000000    
 -0.61627771236579187       -1.4917418649652168        0.00000000    
 -0.30646624735709743       -1.5684199168100834        0.00000000    
  -6.2021668936238349E-003  -1.5921592127677540        0.00000000    
  0.29138725477444943       -1.5735282437717142        0.00000000    
  0.60267905416313927       -1.5006311893639916        0.00000000    
  0.92918679133096693       -1.3502448947253893        0.00000000    
   1.2183198993529261       -1.1330680727088998        0.00000000    
   1.4132141613861564      -0.86381857495683789        0.00000000    
   1.5158943135260854      -0.60527455195951818        0.00000000    
   1.5649898595241187      -0.35784167724096944        0.00000000    
   1.5712195595804099      -0.14201768457175007        0.00000000    
   1.5461268076437886        3.8519568903083203E-002   0.00000000    
   1.4980745089802017       0.18503765696734994        0.00000000    
   1.4335913939130140       0.29961528762422307        0.00000000    
   1.3581828356697239       0.38845178523364299        0.00000000    
   1.2736119355308579       0.45608723475548257        0.00000000    
   1.1829088442295923       0.50705534223070425        0.00000000    
   1.0866031357455008       0.54513039211324843        0.00000000    
  0.98654411336053671       0.57308138604315706        0.00000000    
  0.88295920448954501       0.59356079665581463        0.00000000    
  0.77706190967799582       0.60814185504319285        0.00000000    
  0.66898213764558168       0.61858655293266662        0.00000000    
  0.55953000088050509       0.62571854745660438        0.00000000    
  0.44879527316163731       0.63068080729161613        0.00000000    
  0.33730944456459994       0.63382896171840297        0.00000000    
  0.22515955875193494       0.63588822416856927        0.00000000    
  0.11268188971515712       0.63690392921136696        0.00000000    
   0.0000000000000000       0.63730741002395330        0.00000000    
   0.0000000000000000       0.74500942386928615        0.00000000    
 -0.10332066754520416       0.74464032006565783        0.00000000    
 -0.20644134647783657       0.74319106834457271        0.00000000    
 -0.30907216727419790       0.74075408083835736        0.00000000    
 -0.41107313600602330       0.73670831779576718        0.00000000    
 -0.51202668931822726       0.73086486414073237        0.00000000    
 -0.61183572950357101       0.72223087221255522        0.00000000    
 -0.70991039513536525       0.71023164852634724        0.00000000    
 -0.80620264216394844       0.69333455295572521        0.00000000    
 -0.89989399509793988       0.67037376888147160        0.00000000    
 -0.99103108136222051       0.63901738687616128        0.00000000    
  -1.0784711325887240       0.59714761974663277        0.00000000    
  -1.1624429847366053       0.54128745987991145        0.00000000    
  -1.2412339324536159       0.46774477245085039        0.00000000    
  -1.3152447340002154       0.37161286456814685        0.00000000    
  -1.3814356207192555       0.24656375598119198        0.00000000    
  -1.4392043760198956        8.6992395455574176E-002   0.00000000    
  -1.4821592524299609      -0.11671024404750197        0.00000000    
  -1.5013118953258493      -0.36276700023259190        0.00000000    
  -1.4888638891620258      -0.65175602182396675        0.00000000    
  -1.4138880468588215      -0.98308007311014489        0.00000000    
  -1.2694643665960383       -1.3353944313262873        0.00000000    
  -1.0424084557710540       -1.6420086458413383        0.00000000    
 -0.70123185582600012       -1.8532977241713757        0.00000000    
 -0.33481864602895173       -1.8830842740644844        0.00000000    
  -6.3280470682413915E-003  -1.9062447227540298        0.00000000    
  0.31413566068010945       -1.8774915569069062        0.00000000    
  0.69110421073335171       -1.8849233444394589        0.00000000    
   1.0492494380389388       -1.6505999478566342        0.00000000    
   1.2782168689368667       -1.3508113930174461        0.00000000    
   1.4222186759437028      -0.98497012251396587        0.00000000    
   1.4917566001478484      -0.65634025839140320        0.00000000    
   1.5026292474668008      -0.36674332093475720        0.00000000    
   1.4831834955493781      -0.11989912856898477        0.00000000    
   1.4400659185088329        8.4612216795476064E-002   0.00000000    
   1.3821025143326147       0.24496159924108538        0.00000000    
   1.3157531795298489       0.37052469299503882        0.00000000    
   1.2416197098406456       0.46708531336903580        0.00000000    
   1.1627439034026663       0.54090132621884579        0.00000000    
   1.0787081339545714       0.59698102974044609        0.00000000    
  0.99123259561896704       0.63898687504461493        0.00000000    
  0.90006196316151776       0.67045548520502740        0.00000000    
  0.80635370941802709       0.69348079128140816        0.00000000    
  0.71003885046373261       0.71043494791916495        0.00000000    
  0.61195069162218996       0.72246232745712324        0.00000000    
  0.51212139515201061       0.73112514445601617        0.00000000    
  0.41115247989535514       0.73697879342616113        0.00000000    
  0.30913100675703936       0.74103921858662936        0.00000000    
  0.20648210796880359       0.74347769424484567        0.00000000    
  0.10334068008937786       0.74493449893134389        0.00000000    
   0.0000000000000000       0.74530035334000166        0.00000000    
   0.0000000000000000       0.84319636088631411        0.00000000    
  -9.2780738510975916E-002  0.84255567262946662        0.00000000    
 -0.18526951509605791       0.84088605459542209        0.00000000    
 -0.27724277519060675       0.83766405812922962        0.00000000    
 -0.36831820986768937       0.83287562586744823        0.00000000    
 -0.45832985123099051       0.82566363136664789        0.00000000    
 -0.54677973058207396       0.81569190393277269        0.00000000    
 -0.63357328963340709       0.80163971879568729        0.00000000    
 -0.71807221323729065       0.78271852880644044        0.00000000    
 -0.80031685060795388       0.75692665579472862        0.00000000    
 -0.87949861037060462       0.72278421585261843        0.00000000    
 -0.95595010548631720       0.67727320275676028        0.00000000    
  -1.0286105101544780       0.61779499561821882        0.00000000    
  -1.0984212383920058       0.53983976871349415        0.00000000    
  -1.1637368824751453       0.43884516441739307        0.00000000    
  -1.2265819759195462       0.30836827831087654        0.00000000    
  -1.2834594671139501       0.13983495239444416        0.00000000    
  -1.3365166016694590       -7.3539970114525635E-002   0.00000000    
  -1.3764978999980040      -0.34680253084491980        0.00000000    
  -1.4056313052910228      -0.65103430905258297        0.00000000    
  -1.3612829857563158       -1.1031244123730000        0.00000000    
  -1.1068456543705238       -1.6142040840352432        0.00000000    
 -0.78297083005893908       -1.9141228261775434        0.00000000    
 -0.55156009521374982       -2.1537639074317512        0.00000000    
 -0.29789327405848592       -2.2026911838361514        0.00000000    
  -4.0135407949027022E-003  -2.2090012231198521        0.00000000    
  0.30651608770344246       -2.2057214812631400        0.00000000    
  0.55436781427046244       -2.1815067493797593        0.00000000    
  0.77530221356707374       -1.9330891881067400        0.00000000    
   1.1051759236332537       -1.6271563917164151        0.00000000    
   1.3564470545737517       -1.1038910364437466        0.00000000    
   1.4048472703299366      -0.65535600437420649        0.00000000    
   1.3771274887468785      -0.35087965829496859        0.00000000    
   1.3374810264438048       -7.6669775182411540E-002   0.00000000    
   1.2842378411366329       0.13774444533130506        0.00000000    
   1.2271119394950194       0.30691950918639260        0.00000000    
   1.1640920353034834       0.43793686389955683        0.00000000    
   1.0986302797644201       0.53926921812300821        0.00000000    
   1.0287344174347344       0.61748994618457242        0.00000000    
  0.95602591694408123       0.67713754161616713        0.00000000    
  0.87954416552445558       0.72278851850277370        0.00000000    
  0.80035366269923169       0.75701584687053702        0.00000000    
  0.71809980328850531       0.78288341517950533        0.00000000    
  0.63360240065070073       0.80184546108148780        0.00000000    
  0.54680464137850071       0.81593860967521881        0.00000000    
  0.45835563297204934       0.82592804650532459        0.00000000    
  0.36833917634881563       0.83316214384616816        0.00000000    
  0.27726121491133965       0.83795618467633359        0.00000000    
  0.18528165333070842       0.84119007114724176        0.00000000    
   9.2787456002415031E-002  0.84285863051223187        0.00000000    
   0.0000000000000000       0.84350524135163374        0.00000000    
   0.0000000000000000       0.93019252070949787        0.00000000    
  -8.1224856464102130E-002  0.92956593189190184        0.00000000    
 -0.16212565952437319       0.92726619880074679        0.00000000    
 -0.24231169056870505       0.92344402851509122        0.00000000    
 -0.32151392975947574       0.91737415192134941        0.00000000    
 -0.39925800626240388       0.90892164499098227        0.00000000    
 -0.47533532868330020       0.89696191236826772        0.00000000    
 -0.54917307696277684       0.88100183678341171        0.00000000    
 -0.62066561823769606       0.85934869252209667        0.00000000    
 -0.68913136577389811       0.83100769208982461        0.00000000    
 -0.75468522773303970       0.79343961319186773        0.00000000    
 -0.81651270034185208       0.74489758262862216        0.00000000    
 -0.87521943641807143       0.68153856152771020        0.00000000    
 -0.92971461063423921       0.60040290676595842        0.00000000    
 -0.98170208166057238       0.49558593659937827        0.00000000    
  -1.0290777768321249       0.36184908422196826        0.00000000    