 <VTKFile type="UnstructuredGrid" version="0.1" byte_order="BigEndian">
 <UnstructuredGrid>
 <Piece NumberOfPoints="        2601 " NumberOfCells="        2500 ">
 <PointData Scalars="scalars">
 <DataArray type="Float32" NumberOfComponents="3" Name="Velocity" Format="ascii">
   0.0000000000000000        0.0000000000000000        0.00000000    
 -0.10350577621243479        0.0000000000000000        0.00000000    
 -0.20779676516007475        0.0000000000000000        0.00000000    
 -0.31369719199225571        0.0000000000000000        0.00000000    
 -0.42197519998393068        0.0000000000000000        0.00000000    
 -0.53349131112472370        0.0000000000000000        0.00000000    
 -0.64893626379446345        0.0000000000000000        0.00000000    
 -0.76901468298320652        0.0000000000000000        0.00000000    
 -0.89389046739220890        0.0000000000000000        0.00000000    
  -1.0231102450565601        0.0000000000000000        0.00000000    
  -1.1542122146071212        0.0000000000000000        0.00000000    
  -1.2813007189488541        0.0000000000000000        0.00000000    
  -1.3925388254294018        0.0000000000000000        0.00000000    
  -1.4708567252402198        0.0000000000000000        0.00000000    
  -1.4979140569520999        0.0000000000000000        0.00000000    
  -1.4663429840994764        0.0000000000000000        0.00000000    
  -1.3838458648446075        0.0000000000000000        0.00000000    
  -1.2736913924248443        0.0000000000000000        0.00000000    
  -1.1373380588477426        0.0000000000000000        0.00000000    
 -0.99820388222362377        0.0000000000000000        0.00000000    
 -0.83883322680968875        0.0000000000000000        0.00000000    
 -0.66886413852286697        0.0000000000000000        0.00000000    
 -0.50487895690416140        0.0000000000000000        0.00000000    
 -0.34048997200991132        0.0000000000000000        0.00000000    
 -0.19048237628381190        0.0000000000000000        0.00000000    
  -3.1455093364590500E-002   0.0000000000000000        0.00000000    
  0.12139592153365819        0.0000000000000000        0.00000000    
  0.28194906947753201        0.0000000000000000        0.00000000    
  0.46255277859629740        0.0000000000000000        0.00000000    
  0.63139097425886126        0.0000000000000000        0.00000000    
  0.81453489513900790        0.0000000000000000        0.00000000    
  0.98515068729066968        0.0000000000000000        0.00000000    
   1.1275944207386319        0.0000000000000000        0.00000000    
   1.2700300243071920        0.0000000000000000        0.00000000    
   1.3848050347933605        0.0000000000000000        0.00000000    
   1.4682473942347449        0.0000000000000000        0.00000000    
   1.5016054148063744        0.0000000000000000        0.00000000    
   1.4740291252685813        0.0000000000000000        0.00000000    
   1.3958096656662529        0.0000000000000000        0.00000000    
   1.2841427226209228        0.0000000000000000        0.00000000    
   1.1566253180140229        0.0000000000000000        0.00000000    
   1.0251369758844404        0.0000000000000000        0.00000000    
  0.89550261660011843        0.0000000000000000        0.00000000    
  0.77028578710096551        0.0000000000000000        0.00000000    
  0.64992234459040243        0.0000000000000000        0.00000000    
  0.53424321068579239        0.0000000000000000        0.00000000    
  0.42253543943928851        0.0000000000000000        0.00000000    
  0.31409299907220373        0.0000000000000000        0.00000000    
  0.20805067270983238        0.0000000000000000        0.00000000    
  0.10362928992878530        0.0000000000000000        0.00000000    
   0.0000000000000000        0.0000000000000000        0.00000000    
   0.0000000000000000       0.10250085045318938        0.00000000    
 -0.10188033784552843       0.10288526360470381        0.00000000    
 -0.20449999160112661       0.10402537909846338        0.00000000    
 -0.30856909240929214       0.10594414854181095        0.00000000    
 -0.41486361909886288       0.10862838613935948        0.00000000    
 -0.52405045618490220       0.11207456208739547        0.00000000    
 -0.63687169422174827       0.11619162861910878        0.00000000    
 -0.75377214285245919       0.12078723920026008        0.00000000    
 -0.87505318361851181       0.12536958597470554        0.00000000    
  -1.0001066431770378       0.12890365124808112        0.00000000    
  -1.1271090202471252       0.12920069537247569        0.00000000    
  -1.2511477181419215       0.12192650686397193        0.00000000    
  -1.3622945856507489       0.10045846712533908        0.00000000    
  -1.4437128760975226        5.9277723132230516E-002   0.00000000    
  -1.4773975183622008        1.4642508443627146E-003   0.00000000    
  -1.4520734984869785       -5.8359343572094047E-002   0.00000000    
  -1.3812043991592537       -9.5006875010314545E-002   0.00000000    
  -1.2769208437224360      -0.11943115284606992        0.00000000    
  -1.1526861563414150      -0.14115686811183803        0.00000000    
 -0.99777028917584010      -0.15289317567766142        0.00000000    
 -0.83722819257309600      -0.16701957633883724        0.00000000    
 -0.67201706939236516      -0.16816063512849905        0.00000000    
 -0.49912709535578187      -0.16871452052662345        0.00000000    
 -0.33405702546967114      -0.16074453425349761        0.00000000    
 -0.17643819021054055      -0.14688189673156241        0.00000000    
  -3.9616084558639499E-002 -0.14896749183932695        0.00000000    
  0.11065900489524032      -0.15415861251261875        0.00000000    
  0.27739020283309745      -0.17312573336888312        0.00000000    
  0.45168397588766812      -0.18177174880427044        0.00000000    
  0.64349200026573816      -0.17887447123616007        0.00000000    
  0.81388016593600454      -0.17465761531408489        0.00000000    
  0.97818927421734880      -0.16026728511869978        0.00000000    
   1.1452659740350648      -0.14925314814686264        0.00000000    
   1.2771840073501806      -0.12510048873656807        0.00000000    
   1.3833037676421367       -9.5794282041405346E-002   0.00000000    
   1.4551508153352974       -5.9495125092928328E-002   0.00000000    
   1.4797690644018313        1.5188554548657908E-003   0.00000000    
   1.4466938089157617        5.9132689569049893E-002   0.00000000    
   1.3649705619129815       0.10081001703602728        0.00000000    
   1.2535883941951946       0.12223909372703222        0.00000000    
   1.1292880798852674       0.12957862518970684        0.00000000    
   1.0018871738951511       0.12931062292990514        0.00000000    
  0.87649335071765599       0.12571755953181657        0.00000000    
  0.75491101505784641       0.12108160562705800        0.00000000    
  0.63776082931049605       0.11643202263076703        0.00000000    
  0.52473467541384444       0.11227326517041306        0.00000000    
  0.41537381082075797       0.10879537066909739        0.00000000    
  0.30893282511828096       0.10608805540039021        0.00000000    
  0.20473268050721319       0.10415441557297481        0.00000000    
  0.10199437286491750       0.10300527485029620        0.00000000    
   0.0000000000000000       0.10261838794333533        0.00000000    
   0.0000000000000000       0.20185461268415952        0.00000000    
  -9.7136462419270556E-002  0.20254830163845494        0.00000000    
 -0.19481888081569163       0.20466441321665335        0.00000000    
 -0.29361882551970658       0.20817415993572114        0.00000000    
 -0.39402455824673116       0.21309863416196292        0.00000000    
 -0.49658208745074850       0.21934868035476224        0.00000000    
 -0.60162848292616955       0.22678514386392101        0.00000000    
 -0.70951125221337652       0.23497694187327017        0.00000000    
 -0.82012126334715540       0.24307093520143072        0.00000000    
 -0.93310487168016765       0.24923936991278955        0.00000000    
  -1.0471390458792753       0.24990152797685955        0.00000000    
  -1.1600348808311265       0.23816020710612953        0.00000000    
  -1.2663983551613884       0.20173510872218745        0.00000000    
  -1.3536777932002790       0.12669881002098188        0.00000000    
  -1.3984552388981364        1.2505251918151441E-002   0.00000000    
  -1.3961225075383521       -9.7057095880788313E-002   0.00000000    
  -1.3455840759436510      -0.17771665362383052        0.00000000    
  -1.2567203832694780      -0.22986862234300659        0.00000000    
  -1.1382433649118222      -0.27343110435301954        0.00000000    
 -0.97546639654309752      -0.33831177496953913        0.00000000    
 -0.80571550512960222      -0.31189396506190059        0.00000000    
 -0.63686189871279764      -0.35735097600190774        0.00000000    
 -0.45609433262626259      -0.33318171977388578        0.00000000    
 -0.28972274641529872      -0.32771899110241071        0.00000000    
 -0.14884595583950325      -0.27840306571554646        0.00000000    
  -4.5697747207147664E-002 -0.25741663713915802        0.00000000    
   8.0004947475663599E-002 -0.32168725134808906        0.00000000    
  0.23387580045767201      -0.32619914545188555        0.00000000    
  0.40557859179376876      -0.37469490111014037        0.00000000    
  0.61769582887612073      -0.38987658038737866        0.00000000    
  0.78889678692801790      -0.30524462988321682        0.00000000    
  0.95306789769239564      -0.35816048959440461        0.00000000    
   1.1325236333402986      -0.29789237913369854        0.00000000    
   1.2591412124859591      -0.23499687021006990        0.00000000    
   1.3477115584930275      -0.18058800686608642        0.00000000    
   1.3970385219435033       -9.5875411411730727E-002   0.00000000    
   1.3991038704482448        1.1215544202557898E-002   0.00000000    
   1.3546558687368864       0.12695925801875207        0.00000000    
   1.2675629789956859       0.20179958533027015        0.00000000    
   1.1615862845315839       0.23860838761457401        0.00000000    
   1.0484742438552621       0.25062168628832265        0.00000000    
  0.93423000385114252       0.24991270782541047        0.00000000    
  0.82105992290724106       0.24367937875761167        0.00000000    
  0.71027784942555161       0.23548419554265629        0.00000000    
  0.60224880360546917       0.22720866428251149        0.00000000    
  0.49706929273528905       0.21970228828540625        0.00000000    
  0.39439785710986563       0.21339864777252998        0.00000000    
  0.29388734853188309       0.20843627257733308        0.00000000    
  0.19499373968512984       0.20489995185377308        0.00000000    
   9.7222106327608165E-002  0.20276967956923522        0.00000000    
   0.0000000000000000       0.20207046241684365        0.00000000    
   0.0000000000000000       0.29510307991411544        0.00000000    
  -8.9592781084597631E-002  0.29602907791228306        0.00000000    
 -0.17948124515373140       0.29875451940829445        0.00000000    
 -0.26990712005388184       0.30330987334815979        0.00000000    
 -0.36113098648130648       0.30959251990388309        0.00000000    
 -0.45323423386997802       0.31751557120543999        0.00000000    
 -0.54630461901332106       0.32673503363190881        0.00000000    
 -0.64007705658052017       0.33668225895958903        0.00000000    
 -0.73422800000622312       0.34612657267448355        0.00000000    
 -0.82790150993696587       0.35284085070338067        0.00000000    
 -0.92020953015350371       0.35264224160178825        0.00000000    
  -1.0099678155346858       0.33807361381410794        0.00000000    
  -1.0968042574437624       0.29502161825340317        0.00000000    
  -1.1740732406280421       0.19796072171283355        0.00000000    
  -1.2262666150398509        3.8214160335879127E-002   0.00000000    
  -1.2347808368717723      -0.11658451382601918        0.00000000    
  -1.1619851617992227      -0.28152334234161802        0.00000000    
  -1.0266615799894188      -0.35024920810428783        0.00000000    
 -0.87933446733143350      -0.41885464960299118        0.00000000    
 -0.76095233935744200      -0.47404732605775485        0.00000000    
 -0.62096253337209995      -0.48589911136840064        0.00000000    
 -0.47338770437536454      -0.49977426510450734        0.00000000    
 -0.35474341120351310      -0.49017028992610717        0.00000000    
 -0.23773626005830165      -0.45410915830210324        0.00000000    
 -0.13302533568461652      -0.39760061346240649        0.00000000    
   9.1662276142169610E-003 -0.38355886131961259        0.00000000    
  0.12045316598516992      -0.43253466021861536        0.00000000    
  0.22219435669296275      -0.47096378026699176        0.00000000    
  0.35074293306124310      -0.53018163399604412        0.00000000    
  0.44031659447461108      -0.53608074599253563        0.00000000    
  0.60113063450449655      -0.49105546235634434        0.00000000    
  0.75888397734768243      -0.49427411072348659        0.00000000    
  0.86351761971387231      -0.44586813601532377        0.00000000    
   1.0100459799369867      -0.36016705269164601        0.00000000    
   1.1508285707329799      -0.28477076118373834        0.00000000    
   1.2276989993958451      -0.11789004920196645        0.00000000    
   1.2223447740230200        3.6519058861120703E-002   0.00000000    
   1.1718097280777897       0.19663879101674997        0.00000000    
   1.0966031285589535       0.29441954159216649        0.00000000    
   1.0099038579545636       0.33866439642105800        0.00000000    
  0.92022346034699820       0.35335811576557158        0.00000000    
  0.82805228011264920       0.35359169858652395        0.00000000    
  0.73442585568480923       0.34679689336811115        0.00000000    
  0.64030677468573738       0.33726783541281841        0.00000000    
  0.54652504082945796       0.32723580408860126        0.00000000    
  0.45343525154624087       0.31794444863262150        0.00000000    
  0.36129706759328151       0.30996610700359956        0.00000000    
  0.27003584649383688       0.30364054302360460        0.00000000    
  0.17956746090068337       0.29905767584731863        0.00000000    
   8.9636475597919110E-002  0.29631457423589069        0.00000000    
   0.0000000000000000       0.29538414967562981        0.00000000    
   0.0000000000000000       0.37976953526042023        0.00000000    
  -7.9779531384381874E-002  0.38073493503486766        0.00000000    
 -0.15952049688022876       0.38367809185060031        0.00000000    
 -0.23918002981444808       0.38847170874013004        0.00000000    
 -0.31857238116509246       0.39504690228988887        0.00000000    
 -0.39748600915855248       0.40307806420146486        0.00000000    
 -0.47539034367126037       0.41214726029183474        0.00000000    
 -0.55167762858229208       0.42132975477778201        0.00000000    
 -0.62521238070020435       0.42916477239979384        0.00000000    
 -0.69474861116536113       0.43301239137384084        0.00000000    
 -0.75845660776990576       0.42848671775227626        0.00000000    
 -0.81456117166185960       0.40809198693659543        0.00000000    
 -0.86157200881566276       0.35885052419360980        0.00000000    
 -0.89898301481533038       0.24881180495632932        0.00000000    
 -0.91291573382438607        5.3489170513109072E-002   0.00000000    
 -0.87913054683910119      -0.15713048915358449        0.00000000    
 -0.82355363028970141      -0.36934995863115022        0.00000000    
 -0.75168580110155347      -0.46961400280831883        0.00000000    
 -0.66028485991419539      -0.53821790873955289        0.00000000    
 -0.55128713315821798      -0.58206392164692955        0.00000000    
 -0.45232935700228721      -0.61683009791602450        0.00000000    
 -0.34811524146596584      -0.62063222308591648        0.00000000    
 -0.24158236728064100      -0.59448949929765693        0.00000000    
 -0.16470050483504334      -0.54367896251793613        0.00000000    
  -6.9968340504390200E-002 -0.50747389794697462        0.00000000    
   1.1921505738407522E-002 -0.49776698637382655        0.00000000    
   9.6898908807814599E-002 -0.51459087660078284        0.00000000    
  0.17727171695982144      -0.57102156274168780        0.00000000    
  0.23620608355938530      -0.61760679448459677        0.00000000    
  0.34242903958243198      -0.64445220293712902        0.00000000    
  0.44057816896966290      -0.64164717482366440        0.00000000    
  0.53875281283576149      -0.59961038496199748        0.00000000    
  0.65026585534134029      -0.55667854664316530        0.00000000    
  0.73830812580953331      -0.48392727275141573        0.00000000    
  0.81253245466256985      -0.37601746076745629        0.00000000    
  0.87214213746339253      -0.16312346107815193        0.00000000    
  0.90756015326117678        5.1688680316719457E-002   0.00000000    
  0.89512575679847572       0.24443861196888142        0.00000000    
  0.85878147782865022       0.35817059912850796        0.00000000    
  0.81228000418821522       0.40811408312930697        0.00000000    
  0.75700888741306782       0.42885994343990352        0.00000000    
  0.69376651702632486       0.43350342153312266        0.00000000    
  0.62460229528363254       0.42967581659193410        0.00000000    
  0.55129068584803309       0.42181960262353685        0.00000000    
  0.47516133369065183       0.41259512289144323        0.00000000    
  0.39735056527270252       0.40348568753083469        0.00000000    
  0.31849874251497029       0.39541487481598442        0.00000000    
  0.23914074002240218       0.38881099880313352        0.00000000    
  0.15950227139132012       0.38399407429193477        0.00000000    
   7.9772203948238807E-002  0.38103922853702676        0.00000000    
   0.0000000000000000       0.38006817492056144        0.00000000    
   0.0000000000000000       0.45384439687671430        0.00000000    
  -6.8315078891020301E-002  0.45475468369388100        0.00000000    
 -0.13628158569918522       0.45736581549550215        0.00000000    
 -0.20347009638234292       0.46163202871250941        0.00000000    
 -0.26941339726192182       0.46722223454763023        0.00000000    
 -0.33338364941968501       0.47378661209484613        0.00000000    
 -0.39455863511976391       0.48051803261112908        0.00000000    
 -0.45162874080754684       0.48631637305719255        0.00000000    
 -0.50311654480105505       0.48920071023167722        0.00000000    
 -0.54678979381770576       0.48618593302363722        0.00000000    
 -0.58016973838586960       0.47240111727503359        0.00000000    
 -0.59978960665150416       0.43990201957125580        0.00000000    
 -0.60116750416108511       0.37542922622211350        0.00000000    
 -0.58132108093802326       0.24979768570408931        0.00000000    
 -0.55112279112118301        3.6237718957138530E-002   0.00000000    
 -0.52555640521710556      -0.19923061048170693        0.00000000    
 -0.50851557464611363      -0.39986758441958958        0.00000000    
 -0.47994802293129118      -0.53953175791788066        0.00000000    
 -0.42325918707911836      -0.61638993066526038        0.00000000    
 -0.36667648344724563      -0.66947233010447560        0.00000000    
 -0.29956776662602408      -0.69548818243146959        0.00000000    
 -0.23814946340880239      -0.70760655731968447        0.00000000    
 -0.16172690624890793      -0.69047059640485808        0.00000000    
  -7.4271743413779984E-002 -0.61203489068762185        0.00000000    
  -3.2306761274998638E-002 -0.57581511624376103        0.00000000    
   9.7984435438068437E-003 -0.55342081913486507        0.00000000    
   4.7726755094308682E-002 -0.58184275845693423        0.00000000    
   8.4441652550409779E-002 -0.62085738648955224        0.00000000    
  0.16809481937626311      -0.71035850415927493        0.00000000    
  0.23836471522756980      -0.72819334513134637        0.00000000    
  0.29601475615695377      -0.71370520294271733        0.00000000    
  0.36015182549539726      -0.68986407004215078        0.00000000    
  0.41512794720157487      -0.63291402577118616        0.00000000    
  0.47211799580265673      -0.55272411268726573        0.00000000    
  0.50029399261335117      -0.40962094649135672        0.00000000    
  0.51551341007904949      -0.20434907561581928        0.00000000    
  0.53937565789020270        3.3634031249651947E-002   0.00000000    
  0.57180356697280066       0.24249974841568744        0.00000000    
  0.59503901569893947       0.37321829292495784        0.00000000    
  0.59587073113158651       0.43873614754046714        0.00000000    
  0.57738099356048866       0.47199873337477638        0.00000000    
  0.54487002521755989       0.48611797032779447        0.00000000    
  0.50175602558596977       0.48933948917139147        0.00000000    
  0.45068106061203106       0.48654250445350855        0.00000000    
  0.39389144442918672       0.48079118940157051        0.00000000    
  0.33292189977651326       0.47406993409122999        0.00000000    
  0.26909610239449211       0.46750824839523170        0.00000000    
  0.20326126508230169       0.46191046502854960        0.00000000    
  0.13615444246164851       0.45763989931815219        0.00000000    
   6.8255286917689395E-002  0.45502262649775488        0.00000000    
   0.0000000000000000       0.45411226782566477        0.00000000    
   0.0000000000000000       0.51609707902794799        0.00000000    
  -5.5901344957840611E-002  0.51671842539140811        0.00000000    
 -0.11114673363330654       0.51861396928150660        0.00000000    
 -0.16505511012281707       0.52148076209906957        0.00000000    
 -0.21677141761020777       0.52503310952793791        0.00000000    
 -0.26535984669940765       0.52853441836139103        0.00000000    
 -0.30950695598147671       0.53109232132662421        0.00000000    
 -0.34775805760612238       0.53106329165400323        0.00000000    
 -0.37802853369268230       0.52621207171481477        0.00000000    
 -0.39807011229605249       0.51288939916037724        0.00000000    
 -0.40471855414602231       0.48572603755628113        0.00000000    
 -0.39489962349266305       0.43637803690209781        0.00000000    
 -0.36518741219631606       0.35061889510428929        0.00000000    
 -0.32163234453890455       0.21120652594115197        0.00000000    
 -0.28133942287093400        4.3376672349597772E-003   0.00000000    
 -0.25456103915840478      -0.21967532837571030        0.00000000    
 -0.24095695131180495      -0.41006778493757734        0.00000000    
 -0.22687903418447422      -0.57197702623786872        0.00000000    
 -0.20828500806194442      -0.65922752431530607        0.00000000    
 -0.18598087167880759      -0.70552157646518598        0.00000000    
 -0.16425091673669598      -0.74827760782960562        0.00000000    
 -0.13887710071940629      -0.74160925115192522        0.00000000    
 -0.12428086480870891      -0.74748669563906633        0.00000000    
  -9.7903296049624625E-002 -0.66885152304221096        0.00000000    
  -4.8757292328878772E-002 -0.61010946974838387        0.00000000    
   6.1214693280229162E-003 -0.61611043210538974        0.00000000    
   6.3229311375791034E-002 -0.61418929908385278        0.00000000    
  0.11176484741318711      -0.67376127935597585        0.00000000    
  0.13469654281866178      -0.76403947351747747        0.00000000    
  0.14620067480953769      -0.75628640361215671        0.00000000    
  0.16740146453986221      -0.76446297511628314        0.00000000    
  0.18732957094307137      -0.72317147360675038        0.00000000    
  0.20737337981604875      -0.67462655278034889        0.00000000    
  0.22430358827377514      -0.58493184273321874        0.00000000    
  0.23769921133926442      -0.41898483631632133        0.00000000    
  0.25043079975645649      -0.22293619166899856        0.00000000    
  0.27766661877890297        1.1230804697591190E-003   0.00000000    
  0.31622968412839952       0.20401972476315253        0.00000000    
  0.35890055209435956       0.34579199988514975        0.00000000    
  0.39029103466658904       0.43394024257512909        0.00000000    
  0.40130613056729447       0.48426928001035791        0.00000000    
  0.39553560039104652       0.51212892221120987        0.00000000    
  0.37615704196296468       0.52582109534752963        0.00000000    
  0.34637221745774888       0.53092068775638201        0.00000000    
  0.30848945079299589       0.53108538894618784        0.00000000    
  0.26461769384104911       0.52861703615111033        0.00000000    
  0.21624232409031274       0.52516231346800823        0.00000000    
  0.16469251853248643       0.52164104282568025        0.00000000    
  0.11092079991172213       0.51878786276234046        0.00000000    
   5.5792775630858014E-002  0.51690184287828644        0.00000000    
   0.0000000000000000       0.51628111399358123        0.00000000    
   0.0000000000000000       0.56580551864640471        0.00000000    
  -4.3192998021720053E-002  0.56610432875240946        0.00000000    
  -8.5518883941067256E-002  0.56679934051521319        0.00000000    
 -0.12603102896043766       0.56771591237414087        0.00000000    
 -0.16373300442709990       0.56821624220680966        0.00000000    
 -0.19738231752451005       0.56758902786902310        0.00000000    
 -0.22564837617986358       0.56445087975629593        0.00000000    
 -0.24677668382244128       0.55708414249144123        0.00000000    
 -0.25896116620236026       0.54264617934372261        0.00000000    
 -0.25984137385202005       0.51737707778437159        0.00000000    
 -0.24745570934829986       0.47550113627837687        0.00000000    
 -0.21973546058090321       0.40906375875908790        0.00000000    
 -0.17899560076668822       0.30748110213652763        0.00000000    
 -0.13071477455666469       0.16250842504128665        0.00000000    
  -9.1210889943643167E-002  -2.6761038146476800E-002   0.00000000    
  -7.8274300728448598E-002 -0.22829159592211110        0.00000000    
  -7.9682166491012660E-002 -0.41364773947509559        0.00000000    
  -9.1190120919732581E-002 -0.57096703439817664        0.00000000    
 -0.10562417707737555      -0.66439748611836924        0.00000000    
 -0.11040185576842339      -0.71787807235339707        0.00000000    
 -0.11349013916701114      -0.75456278348420869        0.00000000    
 -0.11719867157561713      -0.75698935910505027        0.00000000    
 -0.12168116282305751      -0.74222033234884732        0.00000000    
 -0.10545717253889576      -0.71671944537529808        0.00000000    
  -4.7524647008672323E-002 -0.66932007666587245        0.00000000    
   5.4856282573724985E-003 -0.66478886211042643        0.00000000    
   5.6156227692362719E-002 -0.67328931056122077        0.00000000    
  0.11489173374148461      -0.72193230996458391        0.00000000    
  0.13100687340602080      -0.75491527797862101        0.00000000    
  0.12341280950659565      -0.76932066724199788        0.00000000    
  0.11861580514089549      -0.76783249685042554        0.00000000    
  0.11244517021265978      -0.73355942334659729        0.00000000    
  0.10571884084928680      -0.67755608254950339        0.00000000    
   8.9367168254840229E-002 -0.58258084882553896        0.00000000    
   7.5514956989996038E-002 -0.42087924202404597        0.00000000    
   7.4209817665639374E-002 -0.23246823505394296        0.00000000    
   8.8251481670541990E-002  -3.0622359172828798E-002   0.00000000    
  0.12789418813378434       0.15755939259277904        0.00000000    
  0.17513958588135756       0.30233606634175270        0.00000000    
  0.21564192885300171       0.40550335057448800        0.00000000    
  0.24409672774881955       0.47323627721427652        0.00000000    
  0.25713534273093114       0.51589384020130036        0.00000000    
  0.25684536357852350       0.54172471493777163        0.00000000    
  0.24513742173762579       0.55650983451214253        0.00000000    
  0.22439588475850328       0.56412054583416993        0.00000000    
  0.19643958370426182       0.56740993726921218        0.00000000    
  0.16304186792407321       0.56814249788071303        0.00000000    
  0.12554758039600589       0.56770495149876765        0.00000000    
   8.5212689055769383E-002  0.56683056405014409        0.00000000    
   4.3044566607583157E-002  0.56615528831943107        0.00000000    
   0.0000000000000000       0.56586501079077334        0.00000000    
   0.0000000000000000       0.60306352152148790        0.00000000    
  -3.0799260622692063E-002  0.60283858452163164        0.00000000    
  -6.0580067598611849E-002  0.60217177764115237        0.00000000    
  -8.8305883143144998E-002  0.60058143581199519        0.00000000    
 -0.11281218114363825       0.59755899223600462        0.00000000    
 -0.13289479962323339       0.59197820941671708        0.00000000    
 -0.14710813630592931       0.58254109354654215        0.00000000    
 -0.15402184746727937       0.56703594750499686        0.00000000    
 -0.15193601281341060       0.54279302205610069        0.00000000    
 -0.13953460759175662       0.50570903749985752        0.00000000    
 -0.11562009157530460       0.45086899604258918        0.00000000    
  -8.1179194527374057E-002  0.37153475317938228        0.00000000    
  -3.9096430324137371E-002  0.26218748369864070        0.00000000    
   2.1139365892196794E-003  0.11831085035559571        0.00000000    
   3.0611595544111702E-002  -5.0565007028806126E-002   0.00000000    
   4.2972641530437054E-002 -0.22978526224139387        0.00000000    