 <VTKFile type="UnstructuredGrid" version="0.1" byte_order="BigEndian">
 <UnstructuredGrid>
 <Piece NumberOfPoints="        2601 " NumberOfCells="        2500 ">
 <PointData Scalars="scalars">
 <DataArray type="Float32" NumberOfComponents="3" Name="Velocity" Format="ascii">
   0.0000000000000000        0.0000000000000000        0.00000000    
  -6.3080955304248926E-002   0.0000000000000000        0.00000000    
 -0.12534915149514039        0.0000000000000000        0.00000000    
 -0.18597858065293207        0.0000000000000000        0.00000000    
 -0.24418296446522234        0.0000000000000000        0.00000000    
 -0.29913814333093902        0.0000000000000000        0.00000000    
 -0.35010138258324908        0.0000000000000000        0.00000000    
 -0.39627288692737245        0.0000000000000000        0.00000000    
 -0.43697947665207310        0.0000000000000000        0.00000000    
 -0.47148028485655680        0.0000000000000000        0.00000000    
 -0.49921022204077359        0.0000000000000000        0.00000000    
 -0.51953652824433338        0.0000000000000000        0.00000000    
 -0.53205391134678715        0.0000000000000000        0.00000000    
 -0.53630048482582882        0.0000000000000000        0.00000000    
 -0.53209169973887260        0.0000000000000000        0.00000000    
 -0.51920670270321023        0.0000000000000000        0.00000000    
 -0.49774211100094878        0.0000000000000000        0.00000000    
 -0.46778349721896562        0.0000000000000000        0.00000000    
 -0.42975330089765362        0.0000000000000000        0.00000000    
 -0.38408720339278973        0.0000000000000000        0.00000000    
 -0.33154463805359236        0.0000000000000000        0.00000000    
 -0.27291558848076369        0.0000000000000000        0.00000000    
 -0.20925976851627412        0.0000000000000000        0.00000000    
 -0.14167384458573093        0.0000000000000000        0.00000000    
  -7.1428903200864091E-002   0.0000000000000000        0.00000000    
   1.7165223399664333E-004   0.0000000000000000        0.00000000    
   7.1776269148300403E-002   0.0000000000000000        0.00000000    
  0.14201274795137106        0.0000000000000000        0.00000000    
  0.20959833013865295        0.0000000000000000        0.00000000    
  0.27324163135686386        0.0000000000000000        0.00000000    
  0.33186625728709268        0.0000000000000000        0.00000000    
  0.38439289424031675        0.0000000000000000        0.00000000    
  0.43005106174354957        0.0000000000000000        0.00000000    
  0.46806277522390743        0.0000000000000000        0.00000000    
  0.49801068211299332        0.0000000000000000        0.00000000    
  0.51945518213004016        0.0000000000000000        0.00000000    
  0.53232747030636174        0.0000000000000000        0.00000000    
  0.53651546599299693        0.0000000000000000        0.00000000    
  0.53225490386243479        0.0000000000000000        0.00000000    
  0.51971680819332777        0.0000000000000000        0.00000000    
  0.49937582624553634        0.0000000000000000        0.00000000    
  0.47162582390535995        0.0000000000000000        0.00000000    
  0.43711006847711098        0.0000000000000000        0.00000000    
  0.39638440238807415        0.0000000000000000        0.00000000    
  0.35019790269346168        0.0000000000000000        0.00000000    
  0.29921669745365564        0.0000000000000000        0.00000000    
  0.24424651551619356        0.0000000000000000        0.00000000    
  0.18602521526104435        0.0000000000000000        0.00000000    
  0.12538066429707539        0.0000000000000000        0.00000000    
   6.3096411283811618E-002   0.0000000000000000        0.00000000    
   0.0000000000000000        0.0000000000000000        0.00000000    
   0.0000000000000000        6.3353963371607841E-002   0.00000000    
  -6.3214875774184290E-002   6.2943369800864207E-002   0.00000000    
 -0.12560994884425922        6.1721401444296511E-002   0.00000000    
 -0.18638505860637380        5.9684639238667909E-002   0.00000000    
 -0.24471361496924410        5.6849802374504224E-002   0.00000000    
 -0.29982897429946842        5.3222236826268442E-002   0.00000000    
 -0.35091533888948107        4.8828867494301313E-002   0.00000000    
 -0.39726002769927743        4.3688825511219373E-002   0.00000000    
 -0.43808561225199649        3.7844847913051372E-002   0.00000000    
 -0.47276497689071567        3.1336823285580351E-002   0.00000000    
 -0.50060051976357223        2.4230154277708343E-002   0.00000000    
 -0.52109592061209364        1.6593049363740720E-002   0.00000000    
 -0.53368990091849611        8.5198096851501100E-003   0.00000000    
 -0.53807454260756604        1.1290013074327964E-004   0.00000000    
 -0.53389316688138233       -8.5015672910749782E-003   0.00000000    
 -0.52108960435395812       -1.7185499627255636E-002   0.00000000    
 -0.49958273162986083       -2.5784473132226138E-002   0.00000000    
 -0.46962443667336773       -3.4130944896722804E-002   0.00000000    
 -0.43146774551295008       -4.2054452768919573E-002   0.00000000    
 -0.38570440869047357       -4.9373492580160119E-002   0.00000000    
 -0.33294931094048996       -5.5922682273263032E-002   0.00000000    
 -0.27412378069420962       -6.1530409963554085E-002   0.00000000    
 -0.21018476132988889       -6.6062942315640277E-002   0.00000000    
 -0.14231997007012900       -6.9386286240540898E-002   0.00000000    
  -7.1753413329627730E-002  -7.1423725529283874E-002   0.00000000    
   1.7446848710394783E-004  -7.2103225508781552E-002   0.00000000    
   7.2096046148385967E-002  -7.1421482853949156E-002   0.00000000    
  0.14266442547137148       -6.9381888915361054E-002   0.00000000    
  0.21051860715905438       -6.6056388325612780E-002   0.00000000    
  0.27445513932644122       -6.1521958008659713E-002   0.00000000    
  0.33326626810447257       -5.5912309116898151E-002   0.00000000    
  0.38601503964458522       -4.9361611138497831E-002   0.00000000    
  0.43176096178851009       -4.2040989529458984E-002   0.00000000    
  0.46990816714304068       -3.4116439486732569E-002   0.00000000    
  0.49984696569162279       -2.5768775239960639E-002   0.00000000    
  0.52134197030775076       -1.7169237723357950E-002   0.00000000    
  0.53412491083758940       -8.4844983361256638E-003   0.00000000    
  0.53829280593786999        1.3010120530541046E-004   0.00000000    
  0.53388727910932632        8.5374824039321333E-003   0.00000000    
  0.52127887557103625        1.6610512447028485E-002   0.00000000    
  0.50076300838670762        2.4247833277187335E-002   0.00000000    
  0.47291261043323468        3.1354064526384451E-002   0.00000000    
  0.43821365427403058        3.7862145419547466E-002   0.00000000    
  0.39737310102970930        4.3705573064487649E-002   0.00000000    
  0.35100991893293393        4.8845608581817176E-002   0.00000000    
  0.29990859773269773        5.3238418340362796E-002   0.00000000    
  0.24477586227142595        5.6866000066730801E-002   0.00000000    
  0.18643231606034333        5.9700347841419761E-002   0.00000000    
  0.12564080720399309        6.1737213745647813E-002   0.00000000    
   6.3230536053433262E-002   6.2958812406248024E-002   0.00000000    
   0.0000000000000000        6.3369637028841644E-002   0.00000000    
   0.0000000000000000       0.12696476421217484        0.00000000    
  -6.3604285564507312E-002  0.12615317063109510        0.00000000    
 -0.12640089412858860       0.12370472246679026        0.00000000    
 -0.18756809966457999       0.11964507351460672        0.00000000    
 -0.24632315610776731       0.11397442056883379        0.00000000    
 -0.30184304856802435       0.10673430965900260        0.00000000    
 -0.35338479164770309        9.7946341022868214E-002   0.00000000    
 -0.40014444310376723        8.7677130321239027E-002   0.00000000    
 -0.44144292754810394        7.5982049442535615E-002   0.00000000    
 -0.47652831679455421        6.2965812201666665E-002   0.00000000    
 -0.50482299726271174        4.8732824381589199E-002   0.00000000    
 -0.52567574860497279        3.3439966223057567E-002   0.00000000    
 -0.53866275616778858        1.7255314480071799E-002   0.00000000    
 -0.54329770016841861        3.9841382884785149E-004   0.00000000    
 -0.53937447092158575       -1.6890254196179660E-002   0.00000000    
 -0.52664574259229779       -3.4327672810741360E-002   0.00000000    
 -0.50518901075829281       -5.1604474760768397E-002   0.00000000    
 -0.47506766814545132       -6.8389152039660298E-002   0.00000000    
 -0.43669450907687440       -8.4324667993152705E-002   0.00000000    
 -0.39049473033436471       -9.9064965889454668E-002   0.00000000    
 -0.33723389688780842      -0.11224571390838227        0.00000000    
 -0.27770913184014806      -0.12355624801860338        0.00000000    
 -0.21300464986510406      -0.13267918055553463        0.00000000    
 -0.14424344425309968      -0.13939462024138055        0.00000000    
  -7.2736230345531810E-002 -0.14348773783685487        0.00000000    
   1.7254668188354221E-004 -0.14487444784910916        0.00000000    
   7.3085391302063443E-002 -0.14348325859628086        0.00000000    
  0.14458398763383340      -0.13938566449013329        0.00000000    
  0.21334471928331522      -0.13266610145391819        0.00000000    
  0.27803640018353620      -0.12353903290496944        0.00000000    
  0.33755650850479441      -0.11222504571260250        0.00000000    
  0.39080105203441956       -9.9040763361229203E-002   0.00000000    
  0.43699261889424318       -8.4297899275138768E-002   0.00000000    
  0.47534691670159795       -6.8359605041322338E-002   0.00000000    
  0.50545727414152308       -5.1573336871850707E-002   0.00000000    
  0.52689357752159760       -3.4294554341188506E-002   0.00000000    
  0.53960936609550281       -1.6856480049538748E-002   0.00000000    
  0.54351155571623977        4.3342996472548357E-004   0.00000000    
  0.53886246980785957        1.7290199189261005E-002   0.00000000    
  0.52585461064811090        3.3475492146334572E-002   0.00000000    
  0.50498712200790297        4.8767644179372641E-002   0.00000000    
  0.47667235358966692        6.3000855676960579E-002   0.00000000    
  0.44157204947006973        7.6016051112685293E-002   0.00000000    
  0.40025456956856476        8.7711137862192187E-002   0.00000000    
  0.35348003768027497        9.7979195846330178E-002   0.00000000    
  0.30192049065570492       0.10676713799524506        0.00000000    
  0.24638577490197003       0.11400617086772989        0.00000000    
  0.18761401868528119       0.11967691913573913        0.00000000    
  0.12643191608464638       0.12373569391275614        0.00000000    
   6.3619495055158098E-002  0.12618446464139685        0.00000000    
   0.0000000000000000       0.12699545623828987        0.00000000    
   0.0000000000000000       0.19109772341490597        0.00000000    
  -6.4245303730848247E-002  0.18987117940410675        0.00000000    
 -0.12768120594285556       0.18622060303967211        0.00000000    
 -0.18951718975819931       0.18013376062984957        0.00000000    
 -0.24893312986968227       0.17165810801755677        0.00000000    
 -0.30516665445458674       0.16080541680760482        0.00000000    
 -0.35739993823228605       0.14765163775241888        0.00000000    
 -0.40491497622892209       0.13224789940223078        0.00000000    
 -0.44691985467025114       0.11471601889224094        0.00000000    
 -0.48276942037621956        9.5168172509301568E-002   0.00000000    
 -0.51173669912462061        7.3793797234019479E-002   0.00000000    
 -0.53329388697121816        5.0790305525580455E-002   0.00000000    
 -0.54683600337176130        2.6435471140812770E-002   0.00000000    
 -0.55201347641026377        1.0320451440755630E-003   0.00000000    
 -0.54841671510694590       -2.5042506141000304E-002   0.00000000    
 -0.53594620677497506       -5.1373288692486821E-002   0.00000000    
 -0.51446915401002080       -7.7491275645738752E-002   0.00000000    
 -0.48420558094326538      -0.10288590003896643        0.00000000    
 -0.44537262006578832      -0.12703267406368809        0.00000000    
 -0.39855621359040000      -0.14937178007263013        0.00000000    
 -0.34436575858254065      -0.16938882398184557        0.00000000    
 -0.28375302097792732      -0.18654927711364944        0.00000000    
 -0.21770856625804075      -0.20043372522348035        0.00000000    
 -0.14748670030817498      -0.21062178465779918        0.00000000    
  -7.4381603528802978E-002 -0.21687152192035394        0.00000000    
   1.7633181752319443E-004 -0.21895601410587046        0.00000000    
   7.4727798974438528E-002 -0.21686464208704234        0.00000000    
  0.14783457893242935      -0.21060829509767598        0.00000000    
  0.21804537913606392      -0.20041364022530447        0.00000000    
  0.28408695714562460      -0.18652339010654437        0.00000000    
  0.34468462048240306      -0.16935709668797147        0.00000000    
  0.39886820743379259      -0.14933547866386052        0.00000000    
  0.44566642826041725      -0.12699160669674461        0.00000000    
  0.48448931951169261      -0.10284172079664956        0.00000000    
  0.51473265548864056       -7.7443547739319843E-002   0.00000000    
  0.53619731456314912       -5.1323938090443909E-002   0.00000000    
  0.54864659837115615       -2.4990799847995300E-002   0.00000000    
  0.55222948530054738        1.0840431392435503E-003   0.00000000    
  0.54703073308323191        2.6488795077528968E-002   0.00000000    
  0.53347397780186789        5.0842882704630318E-002   0.00000000    
  0.51189616690945139        7.3846926120768791E-002   0.00000000    
  0.48291400829302622        9.5219874719108158E-002   0.00000000    
  0.44704491943771568       0.11476779985201190        0.00000000    
  0.40502522749364750       0.13229793661860831        0.00000000    
  0.35749195243380061       0.14770158039815318        0.00000000    
  0.30524401606453350       0.16085361386288377        0.00000000    
  0.24899350658046920       0.17170629779286811        0.00000000    
  0.18956299112388145       0.18018044189769580        0.00000000    
  0.12771108125875996       0.18626756195665559        0.00000000    
   6.4260462377885991E-002  0.18991701508182221        0.00000000    
   0.0000000000000000       0.19114424191505155        0.00000000    
   0.0000000000000000       0.25596822029113081        0.00000000    
  -6.5108848518464213E-002  0.25435615192346528        0.00000000    
 -0.12942702569122269       0.24949102692968275        0.00000000    
 -0.19214745060446356       0.24142106226893920        0.00000000    
 -0.25249978692475850       0.23014039925002056        0.00000000    
 -0.30966635555880495       0.21572453479385012        0.00000000    
 -0.36290525546421498       0.19820601886234174        0.00000000    
 -0.41140197895110031       0.17770659454986171        0.00000000    
 -0.45446134014632550       0.15432287736541714        0.00000000    
 -0.49129966267333580       0.12825051544206989        0.00000000    
 -0.52130247327882262        9.9682855869170153E-002   0.00000000    
 -0.54376347046885032        6.8920743195300116E-002   0.00000000    
 -0.55820234725869555        3.6287336847855838E-002   0.00000000    
 -0.56405788037181515        2.2144947442868093E-003   0.00000000    
 -0.56105620319248817       -3.2822086213922880E-002   0.00000000    
 -0.54886670007810656       -6.8252413110764937E-002   0.00000000    
 -0.52750462501174922      -0.10344997324202605        0.00000000    
 -0.49696128269766371      -0.13773281301567405        0.00000000    
 -0.45761544229818135      -0.17036325860730281        0.00000000    
 -0.40985541515168633      -0.20061632628320847        0.00000000    
 -0.35446228599090041      -0.22772655995375143        0.00000000    
 -0.29225173792126874      -0.25103352552780195        0.00000000    
 -0.22438277323599326      -0.26986159556214057        0.00000000    
 -0.15205887491418604      -0.28373837838604654        0.00000000    
  -7.6715095373174141E-002 -0.29220250463889713        0.00000000    
   1.7535761061532356E-004 -0.29507212000139721        0.00000000    
   7.7069884242962738E-002 -0.29219323025890925        0.00000000    
  0.15240455738260836      -0.28371986015510126        0.00000000    
  0.22472754347730770      -0.26983456125514599        0.00000000    
  0.29258280823818589      -0.25099801119938192        0.00000000    
  0.35478794645915068      -0.22768397585802294        0.00000000    
  0.41016363870101119      -0.20056657670474351        0.00000000    
  0.45791455701569250      -0.17030834492257690        0.00000000    
  0.49724034340505019      -0.13767235645783890        0.00000000    
  0.52777182779130583      -0.10338642762650208        0.00000000    
  0.54911242543405214       -6.8185009105918515E-002   0.00000000    
  0.56128827472238985       -3.2753554966789618E-002   0.00000000    
  0.56426814656924751        2.2853474904843845E-003   0.00000000    
  0.55839800675417539        3.6357691921034808E-002   0.00000000    
  0.54393786874766015        6.8992189335048318E-002   0.00000000    
  0.52146195927807371        9.9752651127018505E-002   0.00000000    
  0.49143901217854147       0.12832056764339322        0.00000000    
  0.45458588629721797       0.15439063484335719        0.00000000    
  0.41150779780157948       0.17777419605259032        0.00000000    
  0.36299655620172749       0.19827115240348650        0.00000000    
  0.30974036473009431       0.21578948511363413        0.00000000    
  0.25255953142763171       0.23020308533350065        0.00000000    
  0.19219116814611803       0.24148384953775703        0.00000000    
  0.12945653753702974       0.24955201159590140        0.00000000    
   6.5123300746045637E-002  0.25441773814248686        0.00000000    
   0.0000000000000000       0.25602859912862341        0.00000000    
   0.0000000000000000       0.32181684440868474        0.00000000    
  -6.6174168043442338E-002  0.31979180009301589        0.00000000    
 -0.13156319376370454       0.31376383726284607        0.00000000    
 -0.19539933675565163       0.30370607519700271        0.00000000    
 -0.25687905308804732       0.28968869398791652        0.00000000    
 -0.31525217789151638       0.27171718800757977        0.00000000    
 -0.36970067795316319       0.24990201957136138        0.00000000    
 -0.41949948520738578       0.22430737781006851        0.00000000    
 -0.46383126595041779       0.19511448851809926        0.00000000    
 -0.50201741682807577       0.16248462924018564        0.00000000    
 -0.53327433972978722       0.12670972620694576        0.00000000    
 -0.55701144575194250        8.8093225608686265E-002   0.00000000    
 -0.57253543919495664        4.7078973168204648E-002   0.00000000    
 -0.57940964046922439        4.1538401149135758E-003   0.00000000    
 -0.57711329643608034       -4.0058206595830467E-002   0.00000000    
 -0.56545195996245612       -8.4865887352245414E-002   0.00000000    
 -0.54417968434002506      -0.12946960582271896        0.00000000    
 -0.51344193331380272      -0.17299303110293451        0.00000000    
 -0.47337213649153076      -0.21451743608548471        0.00000000    
 -0.42453558281758152      -0.25305748903078318        0.00000000    
 -0.36752130975983355      -0.28769155968425053        0.00000000    
 -0.30333980975172836      -0.31745933497303441        0.00000000    
 -0.23304698991590506      -0.34159633235543568        0.00000000    
 -0.15803755293582825      -0.35933573914851397        0.00000000    
  -7.9753662049330237E-002 -0.37023157688641073        0.00000000    
   1.8031911776233137E-004 -0.37386624466749885        0.00000000    
   8.0107492749950271E-002 -0.37021956862728506        0.00000000    
  0.15839272676286348      -0.35931219151401272        0.00000000    
  0.23339010243986591      -0.34156135392837678        0.00000000    
  0.30367916167635001      -0.31741430423279493        0.00000000    
  0.36784411639582210      -0.28763653686884466        0.00000000    
  0.42485032505679593      -0.25299467684789445        0.00000000    
  0.47366702324550530      -0.21444662069306009        0.00000000    
  0.51372549026102088      -0.17291709242743894        0.00000000    
  0.54444142275016372      -0.12938786586390066        0.00000000    
  0.56570019348086609       -8.4781695366986196E-002   0.00000000    
  0.57733904738278041       -3.9970326934257366E-002   0.00000000    
  0.57962070720195180        4.2418340011941228E-003   0.00000000    
  0.57272443473858126        4.7168864990542902E-002   0.00000000    
  0.55718537686826430        8.8181460650896742E-002   0.00000000    
  0.53342736449746042       0.12679855118980543        0.00000000    
  0.50215553873395624       0.16257069107944461        0.00000000    
  0.46395005077521839       0.19520037679379676        0.00000000    
  0.41960380124038682       0.22439004461375123        0.00000000    
  0.36978732245635754       0.24998427745559204        0.00000000    
  0.31532481575582016       0.27179631219523981        0.00000000    
  0.25693553936739144       0.28976762245905513        0.00000000    
  0.19544211294419764       0.30378235713535195        0.00000000    
  0.13159103202929745       0.31384047088131523        0.00000000    
   6.6188286728335016E-002  0.31986651656318721        0.00000000    
   0.0000000000000000       0.32189266391125010        0.00000000    
   0.0000000000000000       0.38878244134391649        0.00000000    
  -6.7393956356455648E-002  0.38639552198962762        0.00000000    
 -0.13403113736448113       0.37918751639249398        0.00000000    
 -0.19913459241408410       0.36722318816894584        0.00000000    
 -0.26196050689826161       0.35047840549435050        0.00000000    
 -0.32170631588453497       0.32904760348364992        0.00000000    
 -0.37763810272671922       0.30295308354092443        0.00000000    
 -0.42893019084286887       0.27234840106709451        0.00000000    
 -0.47486621517746214       0.23734246131205949        0.00000000    
 -0.51461494117861273       0.19819272342034597        0.00000000    
 -0.54750360284904220       0.15514840561179893        0.00000000    
 -0.57273596765980450       0.10862520501500018        0.00000000    
 -0.58973531008002322        5.9071516367759945E-002   0.00000000    
 -0.59781106119614857        7.1124349071274920E-003   0.00000000    
 -0.59656646741012120       -4.6556554931807527E-002   0.00000000    
 -0.58551941760549009      -0.10107474220192303        0.00000000    
 -0.56456441191633444      -0.15548685052824557        0.00000000    
 -0.53355324468960463      -0.20872352403949759        0.00000000    
 -0.49278930515123132      -0.25961950014991603        0.00000000    
 -0.44257947646035339      -0.30700062899232911        0.00000000    
 -0.38371947645554916      -0.34962151550895665        0.00000000    
 -0.31704455903676326      -0.38638462010810559        0.00000000    
 -0.24384240154882816      -0.41616484885091182        0.00000000    
 -0.16545516202292146      -0.43816272398880290        0.00000000    
  -8.3544864894669030E-002 -0.45159760529554110        0.00000000    
   1.8050763484425925E-004 -0.45615839537588704        0.00000000    
   8.3909914145461631E-002 -0.45158282347342887        0.00000000    
  0.16581020244940303      -0.43813328422796843        0.00000000    
  0.24419564144781197      -0.41612190070995542        0.00000000    
  0.31738240621558572      -0.38632840577009697        0.00000000    
  0.38405045770619034      -0.34955426506453957        0.00000000    
  0.44289087726338722      -0.30692239960101486        0.00000000    
  0.49308992070887436      -0.25953346122521348        0.00000000    
  0.53383161582967065      -0.20862923467785288        0.00000000    
  0.56482934135640006      -0.15538820100854389        0.00000000    
  0.58576099189555586      -0.10097059974055532        0.00000000    
  0.59679313249425348       -4.6451233959092668E-002   0.00000000    
  0.59801460207025559        7.2207959027818895E-003   0.00000000    
  0.58992345979572258        5.9178503437301105E-002   0.00000000    
  0.57290220223994670       0.10873332437066632        0.00000000    
  0.54765466635821669       0.15525342370920020        0.00000000    
  0.51474586257064203       0.19829763712305179        0.00000000    
  0.47498257564315793       0.23744339573932713        0.00000000    
  0.42902836342759160       0.27244867839221565        0.00000000    
  0.37772242441613507       0.30304925333560900        0.00000000    
  0.32177428842242578       0.32914317155260886        0.00000000    
  0.26201520689874025       0.35057031421249440        0.00000000    
  0.19917446345849457       0.36731502890951290        0.00000000    
  0.13405801183215740       0.37927652571350889        0.00000000    
   6.7407089686890964E-002  0.38648532347849984        0.00000000    
   0.0000000000000000       0.38887042784731446        0.00000000    
   0.0000000000000000       0.45704561234315455        0.00000000    
  -6.8729181666054684E-002  0.45425662227138142        0.00000000    
 -0.13671759998290989       0.44595314857003066        0.00000000    
 -0.20323982349246772       0.43208436740274053        0.00000000    
 -0.26752584809930935       0.41273029783436754        0.00000000    
 -0.32885275022941163       0.38786955418490598        0.00000000    
 -0.38641181115337669       0.35762311192511043        0.00000000    
 -0.43947674115986773       0.32203652130563110        0.00000000    
 -0.48720167180330370       0.28131642572680404        0.00000000    
 -0.52886560568980923       0.23563254751237186        0.00000000    
 -0.56360680534313645       0.18533957044620014        0.00000000    
 -0.59074273739849881       0.13080346339399199        0.00000000    
 -0.60944726945805894        7.2598257649305900E-002   0.00000000    
 -0.61914498217907266        1.1360281243431558E-002   0.00000000    
 -0.61913641588189028       -5.2056438828641957E-002   0.00000000    
 -0.60906384266833147      -0.11669336027056185        0.00000000    
 -0.58848666540283323      -0.18139929563434362        0.00000000    
 -0.55740876221897451      -0.24489903100814536        0.00000000    
 -0.51580535799995997      -0.30581021979805112        0.00000000    
 -0.46418423452924573      -0.36263974567006668        0.00000000    
 -0.40307619229102998      -0.41394932625621761        0.00000000    
 -0.33357204176595223      -0.45823476353192039        0.00000000    
 -0.25681802930999803      -0.49426976234358422        0.00000000    
 -0.17443895622496239      -0.52082301075514270        0.00000000    
  -8.8118892788191738E-002 -0.53716656714085231        0.00000000    
   1.8703301662863049E-004 -0.54261962013890208        0.00000000    
   8.8485612711997536E-002 -0.53714847320101144        0.00000000    
  0.17480632289347509      -0.52078752102125814        0.00000000    
  0.25717159718806154      -0.49421726486764822        0.00000000    
  0.33392021403933092      -0.45816731019247914        0.00000000    
  0.40340525122291626      -0.41386733555261090        0.00000000    
  0.46450311992107390      -0.36254650253852971        0.00000000    
  0.51610152457656489      -0.30570569056095281        0.00000000    
  0.55769146587841634      -0.24478752461249087        0.00000000    
  0.58874491677814933      -0.18127996917127159        0.00000000    
  0.60930677823708379      -0.11657122378470003        0.00000000    
  0.61935485577866312       -5.1929707007854847E-002   0.00000000    
  0.61934747493019915        1.1486302757364193E-002   0.00000000    
  0.60962650701829979        7.2726230545992976E-002   0.00000000    
  0.59090630140359979       0.13092818562306735        0.00000000    
  0.56374913371769197       0.18546439236931456        0.00000000    
  0.52899307478532354       0.23575265879446045        0.00000000    
  0.48731022363657522       0.28143564076229161        0.00000000    
  0.43957143840134461       0.32215056050319818        0.00000000    
  0.38648982820311939       0.35773605093474065        0.00000000    
  0.32891782473326708       0.38797764474320001        0.00000000    
  0.26757614516900519       0.41283773403632201        0.00000000    
  0.20327779413434444       0.43218783604922634        0.00000000    
  0.13674221675720927       0.44605688043214781        0.00000000    
   6.8741654960597726E-002  0.45435758584096608        0.00000000    
   0.0000000000000000       0.45714804339460030        0.00000000    
   0.0000000000000000       0.52663026068636654        0.00000000    
  -7.0112482353525102E-002  0.52351471017467210        0.00000000    
 -0.13952611194445522       0.51409818065161039        0.00000000    
 -0.20751704313922262       0.49845356184421463        0.00000000    
 -0.27339000387047768       0.47652116010280982        0.00000000    
 -0.33637611660545824       0.44839277764118474        0.00000000    
 -0.39576561986297970       0.41404952277448154        0.00000000    
 -0.45073121993617482       0.37364170990449980        0.00000000    
 -0.50054016600021289       0.32724618219641077        0.00000000    
 -0.54430779835436949       0.27513542466435154        0.00000000    
 -0.58128913933501891       0.21756030005741855        0.00000000    
 -0.61056919322210890       0.15499978468142256        0.00000000    
 -0.63143483977481818        8.7973178478487818E-002   0.00000000    
 -0.64300839680526767        1.7257692352927529E-002   0.00000000    
 -0.64470183290347116       -5.6267919536662804E-002   0.00000000    
 -0.63579582446836247      -0.13145940200168138        0.00000000    