 <VTKFile type="UnstructuredGrid" version="0.1" byte_order="BigEndian">
 <UnstructuredGrid>
 <Piece NumberOfPoints="        2601 " NumberOfCells="        2500 ">
 <PointData Scalars="scalars">
 <DataArray type="Float32" NumberOfComponents="3" Name="Velocity" Format="ascii">
   0.0000000000000000        0.0000000000000000        0.00000000    
  -8.6583394674572850E-002   0.0000000000000000        0.00000000    
 -0.17444320264598523        0.0000000000000000        0.00000000    
 -0.26482281813277736        0.0000000000000000        0.00000000    
 -0.35926446017370395        0.0000000000000000        0.00000000    
 -0.45904912639594714        0.0000000000000000        0.00000000    
 -0.56615256428657723        0.0000000000000000        0.00000000    
 -0.68072743162815386        0.0000000000000000        0.00000000    
 -0.80372075998081827        0.0000000000000000        0.00000000    
 -0.91853458235913121        0.0000000000000000        0.00000000    
  -1.0051385239887567        0.0000000000000000        0.00000000    
  -1.0360381870875401        0.0000000000000000        0.00000000    
  -1.0073880113377283        0.0000000000000000        0.00000000    
 -0.95656800233023831        0.0000000000000000        0.00000000    
 -0.90443462265500629        0.0000000000000000        0.00000000    
 -0.82253183278674535        0.0000000000000000        0.00000000    
 -0.71520758031375187        0.0000000000000000        0.00000000    
 -0.62514973624279313        0.0000000000000000        0.00000000    
 -0.54091562164994700        0.0000000000000000        0.00000000    
 -0.43887254032421524        0.0000000000000000        0.00000000    
 -0.34494953466041045        0.0000000000000000        0.00000000    
 -0.26801285398006258        0.0000000000000000        0.00000000    
 -0.19600725521094345        0.0000000000000000        0.00000000    
 -0.13870541881008744        0.0000000000000000        0.00000000    
  -9.2684109970616393E-002   0.0000000000000000        0.00000000    
  -4.3176827385684562E-002   0.0000000000000000        0.00000000    
  -6.7646643798153149E-004   0.0000000000000000        0.00000000    
   5.1050984089757549E-002   0.0000000000000000        0.00000000    
  0.10104424172379695        0.0000000000000000        0.00000000    
  0.15812973443740311        0.0000000000000000        0.00000000    
  0.28432451426395261        0.0000000000000000        0.00000000    
  0.41929382686279659        0.0000000000000000        0.00000000    
  0.50983277981560104        0.0000000000000000        0.00000000    
  0.58990125648140224        0.0000000000000000        0.00000000    
  0.72938323728652155        0.0000000000000000        0.00000000    
  0.86006344827083581        0.0000000000000000        0.00000000    
  0.92308914550703403        0.0000000000000000        0.00000000    
  0.97086748244744281        0.0000000000000000        0.00000000    
   1.0158921933820553        0.0000000000000000        0.00000000    
   1.0440701378646244        0.0000000000000000        0.00000000    
   1.0160582129575055        0.0000000000000000        0.00000000    
  0.92909518031539728        0.0000000000000000        0.00000000    
  0.80974760165383974        0.0000000000000000        0.00000000    
  0.68529056022697143        0.0000000000000000        0.00000000    
  0.56910572553906402        0.0000000000000000        0.00000000    
  0.46127084217121100        0.0000000000000000        0.00000000    
  0.36074007249352347        0.0000000000000000        0.00000000    
  0.26588108077742673        0.0000000000000000        0.00000000    
  0.17507074857181745        0.0000000000000000        0.00000000    
   8.6899940220818331E-002   0.0000000000000000        0.00000000    
   0.0000000000000000        0.0000000000000000        0.00000000    
   0.0000000000000000        8.5201264298961868E-002   0.00000000    
  -8.4391552947072096E-002   8.5773683322585989E-002   0.00000000    
 -0.16985778877591146        8.7552360477564387E-002   0.00000000    
 -0.25758236501716991        9.0551831250385850E-002   0.00000000    
 -0.34862273763131052        9.4930183404567478E-002   0.00000000    
 -0.44438370615539313       0.10061545134164748        0.00000000    
 -0.54559968270506554       0.10770396309851916        0.00000000    
 -0.65353907148790957       0.11481029302577771        0.00000000    
 -0.76559179844847258       0.12023576228728793        0.00000000    
 -0.87933780304147846       0.10832406468393213        0.00000000    
 -0.96642435608691302        6.5366429991025057E-002   0.00000000    
  -1.0018028681702182        9.1174519112100817E-004   0.00000000    
 -0.99427977248929555       -3.7085016621791686E-002   0.00000000    
 -0.95456728206887387       -5.3447482805822191E-002   0.00000000    
 -0.88877114698735959       -6.4482031950776980E-002   0.00000000    
 -0.80589371779149910      -0.10029818711298145        0.00000000    
 -0.71347284576670456       -9.9446937384526063E-002   0.00000000    
 -0.62138827258914897       -8.2695479863606286E-002   0.00000000    
 -0.52898623518056953       -9.3940672137548142E-002   0.00000000    
 -0.43718476683525981       -9.9903877533044583E-002   0.00000000    
 -0.34869324714161454       -8.2510647824055983E-002   0.00000000    
 -0.26885691187210425       -7.4262368125457626E-002   0.00000000    
 -0.19946118225910819       -6.7138960256325722E-002   0.00000000    
 -0.14095933446103698       -4.8664723942306538E-002   0.00000000    
  -8.9339640588601443E-002  -4.8976278769360830E-002   0.00000000    
  -4.3238647467816575E-002  -4.6631996936058066E-002   0.00000000    
   4.0010533826777359E-003  -4.3108064861879625E-002   0.00000000    
   5.4002073309993841E-002  -5.8620405592916078E-002   0.00000000    
  0.10958556399828520       -4.6956342728981200E-002   0.00000000    
  0.18601167627200033       -8.6555262258133869E-002   0.00000000    
  0.28505785603841033      -0.13868569733376920        0.00000000    
  0.39795105225320654      -0.10917681147944647        0.00000000    
  0.50048908559116245       -8.3900174810604772E-002   0.00000000    
  0.60032336669987052       -9.6002582963624433E-002   0.00000000    
  0.71008623401478144      -0.15324226515558595        0.00000000    
  0.82262702738997384       -8.9978739203473365E-002   0.00000000    
  0.90724197833243569       -5.7661908974837195E-002   0.00000000    
  0.96666456385288768       -4.9539013485812279E-002   0.00000000    
   1.0055506855501828       -3.4371819145829048E-002   0.00000000    
   1.0107109227819657        1.0336374316058552E-003   0.00000000    
  0.97369129124739662        6.3997919010138724E-002   0.00000000    
  0.88496645534051854       0.11168994953876767        0.00000000    
  0.77065525150076153       0.12196883296242760        0.00000000    
  0.65689601204892190       0.11624744791612450        0.00000000    
  0.54824545770237465       0.10858794111819679        0.00000000    
  0.44618359479427960       0.10130880515761813        0.00000000    
  0.34999085172448441        9.5414707589748363E-002   0.00000000    
  0.25847544490839230        9.0959690942328239E-002   0.00000000    
  0.17044927177342609        8.7876814398143835E-002   0.00000000    
   8.4663018446485563E-002   8.6080247279694294E-002   0.00000000    
   0.0000000000000000        8.5482711387511040E-002   0.00000000    
   0.0000000000000000       0.16619634705321606        0.00000000    
  -7.8059831931878224E-002  0.16722998544717646        0.00000000    
 -0.15678282607144670       0.17028528832128084        0.00000000    
 -0.23675032140931487       0.17551097498567750        0.00000000    
 -0.31857877793034356       0.18283986880434239        0.00000000    
 -0.40251860363674641       0.19240656017221572        0.00000000    
 -0.48872552608349107       0.20333575326426018        0.00000000    
 -0.57627533273664044       0.21466769829584775        0.00000000    
 -0.66339903927565513       0.21955479051669008        0.00000000    
 -0.74967056081209538       0.20902256258371726        0.00000000    
 -0.83163264541107706       0.13371656973561519        0.00000000    
 -0.89116559522537109        2.7473067344009922E-002   0.00000000    
 -0.89918759817439964       -6.3147431505055765E-002   0.00000000    
 -0.84909460534801706      -0.11719055116811880        0.00000000    
 -0.75944560969216846      -0.15618409432012190        0.00000000    
 -0.66794708620559173      -0.18297207742353538        0.00000000    
 -0.59591294343826384      -0.18122806186034932        0.00000000    
 -0.51217838775522440      -0.17673348424608062        0.00000000    
 -0.43004117307675854      -0.17444191983693916        0.00000000    
 -0.36827226042457878      -0.17297301082898198        0.00000000    
 -0.30487764060079725      -0.16132765404102228        0.00000000    
 -0.23099610234771567      -0.14916323542900742        0.00000000    
 -0.15928988784233286      -0.13334003706736980        0.00000000    
  -9.6655970896716792E-002 -0.10359941187333278        0.00000000    
  -5.2284282781388622E-002  -9.0032972823211627E-002   0.00000000    
  -1.1066209160326633E-002  -9.2894369622765705E-002   0.00000000    
   3.3644847739989374E-002  -8.8796449923757112E-002   0.00000000    
   7.1640375482708726E-002 -0.10092856819917005        0.00000000    
  0.13470927097006283      -0.12330056629605250        0.00000000    
  0.22050920740466276      -0.17243708739628671        0.00000000    
  0.27975947066469248      -0.21110031521938644        0.00000000    
  0.32851771022832266      -0.19841362936832271        0.00000000    
  0.40962010382115660      -0.17830378384973006        0.00000000    
  0.50840799431215522      -0.20022114551975229        0.00000000    
  0.57248520467419828      -0.22286378027342688        0.00000000    
  0.63004897293092221      -0.19046178571271252        0.00000000    
  0.73491444548236351      -0.14665928595611030        0.00000000    
  0.83649516953558667      -0.12154494607277065        0.00000000    
  0.89888178550782094       -6.3638624225849441E-002   0.00000000    
  0.89182203091649825        3.2199959872567789E-002   0.00000000    
  0.82855421818965758       0.13311904083058804        0.00000000    
  0.74929846144876555       0.21054942036597046        0.00000000    
  0.66445324019973206       0.22226578722379259        0.00000000    
  0.57773600727353680       0.21642696603265804        0.00000000    
  0.48995519077322264       0.20483979384835804        0.00000000    
  0.40362841014574458       0.19344559596290653        0.00000000    
  0.31938302451876288       0.18371604548110276        0.00000000    
  0.23737626149178864       0.17618052289393032        0.00000000    
  0.15716453845498410       0.17089387861819752        0.00000000    
   7.8259497111520332E-002  0.16775447772994029        0.00000000    
   0.0000000000000000       0.16673099649516512        0.00000000    
   0.0000000000000000       0.23935067592299938        0.00000000    
  -6.8392140144001343E-002  0.24052762865316688        0.00000000    
 -0.13682517850993281       0.24414367762067216        0.00000000    
 -0.20526565848195677       0.25006056099607848        0.00000000    
 -0.27342472899174147       0.25827780982461429        0.00000000    
 -0.34065217302280898       0.26813588888931555        0.00000000    
 -0.40567275149427645       0.27883392546519298        0.00000000    
 -0.46594270265011539       0.28698928390380518        0.00000000    
 -0.51898558717946375       0.28739979597684101        0.00000000    
 -0.55713516015082543       0.26559865163126672        0.00000000    
 -0.58370318075500816       0.18567058589071372        0.00000000    
 -0.60347938259167022        5.4828202840381875E-002   0.00000000    
 -0.60033299941549423       -8.5626947226286707E-002   0.00000000    
 -0.56768840744599680      -0.17744862023642077        0.00000000    
 -0.53006655752389131      -0.22319687082758469        0.00000000    
 -0.49639889236109724      -0.24112548955920984        0.00000000    
 -0.43281710999875161      -0.25869057485220803        0.00000000    
 -0.37121976969260057      -0.24460286723768235        0.00000000    
 -0.32522990981053507      -0.23469961140387008        0.00000000    
 -0.27359128538646366      -0.22612285633324763        0.00000000    
 -0.23327282088551188      -0.21189089285952975        0.00000000    
 -0.19473508851060392      -0.21101926723415004        0.00000000    
 -0.13824161263461862      -0.19968369564174107        0.00000000    
  -8.4943700086211091E-002 -0.15318758278954989        0.00000000    
  -3.7126206854953776E-002 -0.13263398325235329        0.00000000    
   5.9562614157963661E-003 -0.13459390108279407        0.00000000    
   4.6245634795152146E-002 -0.13209734874199308        0.00000000    
   9.0376682400715308E-002 -0.13975424472711037        0.00000000    
  0.14506123704003315      -0.20222833989228062        0.00000000    
  0.20046469668229339      -0.23471270987428036        0.00000000    
  0.23196713687726783      -0.23957739619277710        0.00000000    
  0.26468193149435065      -0.25140958257296331        0.00000000    
  0.31239187926788409      -0.25412017200717879        0.00000000    
  0.35575182153526047      -0.26655259011788701        0.00000000    
  0.40975526153401109      -0.27461298603128392        0.00000000    
  0.46794421679802445      -0.25446530347253093        0.00000000    
  0.50761363910319757      -0.22719066304770807        0.00000000    
  0.55365688936910173      -0.18863754329694066        0.00000000    
  0.58476628787190088       -9.0042041471583054E-002   0.00000000    
  0.59024951803642700        6.0179901548562779E-002   0.00000000    
  0.57715310327465852       0.18150332664356503        0.00000000    
  0.55298323493371071       0.26559075963439832        0.00000000    
  0.51663709397913871       0.28841581015880585        0.00000000    
  0.46506274684673510       0.28856852315602682        0.00000000    
  0.40547068013930293       0.28007111993260575        0.00000000    
  0.34070438494095201       0.26930734570432829        0.00000000    
  0.27361776506354440       0.25918630124395464        0.00000000    
  0.20543385300239589       0.25090094221907161        0.00000000    
  0.13697358507520890       0.24484545025693918        0.00000000    
   6.8462316992416908E-002  0.24121921551733966        0.00000000    
   0.0000000000000000       0.23998807281159482        0.00000000    
   0.0000000000000000       0.30182102400649313        0.00000000    
  -5.6476293247789577E-002  0.30292571396134976        0.00000000    
 -0.11238443589319884       0.30608677332372786        0.00000000    
 -0.16702350491731935       0.31119701428903268        0.00000000    
 -0.21936371612359490       0.31764063824762578        0.00000000    
 -0.26795566139945054       0.32459244977306012        0.00000000    
 -0.31037150225126064       0.32981378390463650        0.00000000    
 -0.34378193278044789       0.32968980714916341        0.00000000    
 -0.36285828645828194       0.31681851093857505        0.00000000    
 -0.36438507860572023       0.27585630178797954        0.00000000    
 -0.35167703510356851       0.18927291283586326        0.00000000    
 -0.32959252693013913        4.8917569557950506E-002   0.00000000    
 -0.31066532389393287      -0.10178990014940414        0.00000000    
 -0.30336922056064825      -0.20122636261411370        0.00000000    
 -0.29018545712229898      -0.25022474180387683        0.00000000    
 -0.26921431248174943      -0.26873642838425971        0.00000000    
 -0.24878238438293598      -0.31509334648198017        0.00000000    
 -0.21731831359033077      -0.28126150670494493        0.00000000    
 -0.18664349612039799      -0.27470564928294705        0.00000000    
 -0.16492409758727428      -0.25947484140955146        0.00000000    
 -0.14316088921337108      -0.24062058065322589        0.00000000    
 -0.13358302529116486      -0.23040517573578018        0.00000000    
 -0.12193013857106581      -0.24844414973199869        0.00000000    
  -7.9804518429280852E-002 -0.19985066138795687        0.00000000    
  -3.9460040527033412E-002 -0.17413287578656902        0.00000000    
   2.4654475547710424E-003 -0.17810296490055461        0.00000000    
   4.6162702596298691E-002 -0.17257491334315339        0.00000000    
   8.7776993465305778E-002 -0.18502201860026227        0.00000000    
  0.12985363026832769      -0.25372175745949516        0.00000000    
  0.14256396030785792      -0.25133308198542165        0.00000000    
  0.14963361174509365      -0.26152911571123089        0.00000000    
  0.16648725702794975      -0.27902630295042563        0.00000000    
  0.18340079881454224      -0.29112694118718829        0.00000000    
  0.20899349074223375      -0.29849845512824341        0.00000000    
  0.23605545028829808      -0.32373252056300561        0.00000000    
  0.25556008893334720      -0.28303936284465314        0.00000000    
  0.27691583890096194      -0.25964177594523763        0.00000000    
  0.28992917432826576      -0.21524301608732430        0.00000000    
  0.30012440525300904      -0.10474119810543832        0.00000000    
  0.32174288010908292        4.7777353166057170E-002   0.00000000    
  0.34474596216394299       0.18399920773265485        0.00000000    
  0.35852553397021736       0.27348517507972137        0.00000000    
  0.35905539914486001       0.31633767049312306        0.00000000    
  0.34128789519451086       0.32998851390432205        0.00000000    
  0.30892828174574083       0.33060280934032354        0.00000000    
  0.26712236064347972       0.32534787259710451        0.00000000    
  0.21888589348024845       0.31846886139166980        0.00000000    
  0.16677421288726643       0.31191397472537741        0.00000000    
  0.11224860588997307       0.30681829267498811        0.00000000    
   5.6424392566409423E-002  0.30358185450553754        0.00000000    
   0.0000000000000000       0.30251214338210985        0.00000000    
   0.0000000000000000       0.35204378814765319        0.00000000    
  -4.3536527126566332E-002  0.35271577019443773        0.00000000    
  -8.6022012062447195E-002  0.35469034467180427        0.00000000    
 -0.12623769391735579       0.35744819381989063        0.00000000    
 -0.16273971032525741       0.36023168633079222        0.00000000    
 -0.19350311862192363       0.36135675526233091        0.00000000    
 -0.21622141367267569       0.35818361431773266        0.00000000    
 -0.22753507298526371       0.34604406657776643        0.00000000    
 -0.22485210153955865       0.31685763374183229        0.00000000    
 -0.20772289373926439       0.26021476333178184        0.00000000    
 -0.18088407808384613       0.16536759213411939        0.00000000    
 -0.16079684565534771        3.0651149657707540E-002   0.00000000    
 -0.15661114343664753      -0.10663638550436709        0.00000000    
 -0.15851311381258570      -0.20177401021341615        0.00000000    
 -0.16333594848458191      -0.25803802297027900        0.00000000    
 -0.15935914230663378      -0.28587109803374705        0.00000000    
 -0.15717978288629791      -0.32056996435137364        0.00000000    
 -0.15943345101903306      -0.30499529149021892        0.00000000    
 -0.15177867301962319      -0.28930145996690654        0.00000000    
 -0.14225805408528958      -0.27611904819157496        0.00000000    
 -0.13218302790299635      -0.25581460842713905        0.00000000    
 -0.11537784018993344      -0.24159419959644768        0.00000000    
 -0.10249455162943048      -0.26179130115185717        0.00000000    
  -8.6898432514473878E-002 -0.24422524922222205        0.00000000    
  -4.4345025257182341E-002 -0.21265617311185375        0.00000000    
   1.3035747136059123E-003 -0.22715375562729745        0.00000000    
   4.5045849243916178E-002 -0.21096365218788010        0.00000000    
   9.1532832980989090E-002 -0.23473455436149462        0.00000000    
  0.11463009792945501      -0.26918312344845441        0.00000000    
  0.12529022904294196      -0.25924217714922709        0.00000000    
  0.13785250450625081      -0.27325194744746495        0.00000000    
  0.14535424186154960      -0.29165885385191886        0.00000000    
  0.15305002044044533      -0.30310371065018482        0.00000000    
  0.15888499935640207      -0.31794935650858136        0.00000000    
  0.15650676600929350      -0.32896534537849453        0.00000000    
  0.15751314401311817      -0.29831755467740539        0.00000000    
  0.15995552836406815      -0.26816171842926834        0.00000000    
  0.15394534413430630      -0.21372622479964259        0.00000000    
  0.14997496558742832      -0.11248284176853759        0.00000000    
  0.15617238765778083        2.7703099902659852E-002   0.00000000    
  0.17645517153776730       0.16078759506107426        0.00000000    
  0.20284085519999615       0.25653153228251013        0.00000000    
  0.22066980925233137       0.31493249406320639        0.00000000    
  0.22448891873945323       0.34534208479724920        0.00000000    
  0.21402806948582123       0.35806970114968101        0.00000000    
  0.19203349231226077       0.36168147906340420        0.00000000    
  0.16176130065725813       0.36064391374349541        0.00000000    
  0.12561175809390332       0.35800014552975301        0.00000000    
   8.5655212042981141E-002  0.35521427491872098        0.00000000    
   4.3364738243319045E-002  0.35330055938491062        0.00000000    
   0.0000000000000000       0.35258256931235438        0.00000000    
   0.0000000000000000       0.38943427842622746        0.00000000    
  -3.0699701595954719E-002  0.38956150863826833        0.00000000    
  -6.0049910023697153E-002  0.38968029959149808        0.00000000    
  -8.6630656016330077E-002  0.38925466674759962        0.00000000    
 -0.10875265245967999       0.38704922625425064        0.00000000    
 -0.12462389560531961       0.38117386678100723        0.00000000    
 -0.13205500830164768       0.36851591054606680        0.00000000    
 -0.12933475860153124       0.34430517996168530        0.00000000    
 -0.11574972271612181       0.30232851302674291        0.00000000    
  -9.3541975550800668E-002  0.23540692908097530        0.00000000    
  -7.0024511914873744E-002  0.13981914709355833        0.00000000    
  -5.5733278565161450E-002   2.1821128919727078E-002   0.00000000    
  -6.0437445966491476E-002  -9.7287899583647128E-002   0.00000000    
  -8.0204287747859676E-002 -0.18945368397699885        0.00000000    
  -9.7854098580157797E-002 -0.24788570370195737        0.00000000    
 -0.11045228165806494      -0.28740204040212081        0.00000000    
 -0.12409076777125527      -0.30757989528964425        0.00000000    
 -0.13295347271501354      -0.30686898747546598        0.00000000    
 -0.13212090305305879      -0.29591511164255407        0.00000000    
 -0.12759458550763511      -0.28355233299563393        0.00000000    
 -0.11757894547105159      -0.26847198984150239        0.00000000    
 -0.10044209975091289      -0.26287885161522589        0.00000000    
  -8.7671711133180091E-002 -0.26616032631090908        0.00000000    
  -7.1534463459279135E-002 -0.27158959085202611        0.00000000    
  -3.5492282958845392E-002 -0.26388741923918252        0.00000000    
   1.1031296251136160E-003 -0.25816652205459206        0.00000000    
   3.8675583085989319E-002 -0.26126561375144175        0.00000000    
   7.9105443605451131E-002 -0.27134943705417969        0.00000000    
   9.7646328429389848E-002 -0.27420639052796691        0.00000000    
  0.10843405782128948      -0.27566677057482519        0.00000000    
  0.12220944903532312      -0.28316502069903066        0.00000000    
  0.12998373770049598      -0.29702180662049310        0.00000000    
  0.13306517188036907      -0.30851797064022035        0.00000000    
  0.13249933249862414      -0.31780423605240327        0.00000000    
  0.12316594700384548      -0.31739884699267085        0.00000000    
  0.10924743351868776      -0.29697191758152131        0.00000000    
   9.5451323770849639E-002 -0.25815363012816006        0.00000000    
   7.5977489246481039E-002 -0.19825029434630037        0.00000000    
   5.5781603087133057E-002 -0.10379250751571990        0.00000000    
   5.1333426826432355E-002   1.7263519840196483E-002   0.00000000    
   6.6410513785220310E-002  0.13586730428453861        0.00000000    
   8.9829674155266603E-002  0.23164697902667755        0.00000000    
  0.11214001143341890       0.29967775598833818        0.00000000    
  0.12622248443492159       0.34269524038338439        0.00000000    
  0.12965142711628860       0.36774845213563540        0.00000000    
  0.12280454438841902       0.38084418797877623        0.00000000    
  0.10746475499463942       0.38709318587676034        0.00000000    
   8.5748876356593312E-002  0.38941629459778565        0.00000000    
   5.9507194548751474E-002  0.38999635370932612        0.00000000    
   3.0440361493357194E-002  0.38987578744925494        0.00000000    
   0.0000000000000000       0.38981244098457213        0.00000000    
   0.0000000000000000       0.41455559812029336        0.00000000    
  -1.8832444378668781E-002  0.41397233491872076        0.00000000    
  -3.6265428747364402E-002  0.41205266610735802        0.00000000    
  -5.0826434249625387E-002  0.40802405172654649        0.00000000    
  -6.1055211074013405E-002  0.40063061454289078        0.00000000    
  -6.5391234187964137E-002  0.38779974475188794        0.00000000    
  -6.2633190708265438E-002  0.36656310179163071        0.00000000    
  -5.2163285864126219E-002  0.33306783417181696        0.00000000    
  -3.4987231515709448E-002  0.28280476858256054        0.00000000    
  -1.4678246464987114E-002  0.21241394130909977        0.00000000    
   2.5703606305604787E-003  0.12204606413370321        0.00000000    
   8.8392740854616320E-003   1.9034065075036501E-002   0.00000000    
   6.6061586570245864E-004  -8.1618010118078496E-002   0.00000000    
  -1.8135148914911876E-002 -0.16656096688034389        0.00000000    
  -4.1677105779692775E-002 -0.22958665310163234        0.00000000    
  -6.4423054487542097E-002 -0.27035695921630110        0.00000000    
  -8.2945747971501477E-002 -0.29246379687834462        0.00000000    
  -9.6056677216527317E-002 -0.30001145169756421        0.00000000    
 -0.10277409014705310      -0.29688780415187954        0.00000000    
 -0.10138109100374200      -0.28849895717463631        0.00000000    
  -9.3321609391047389E-002 -0.28160048731174248        0.00000000    
  -8.1885728822073983E-002 -0.27832308043371867        0.00000000    
  -6.5931276925800711E-002 -0.27944093800638925        0.00000000    
  -4.7773533141529489E-002 -0.29260397061440258        0.00000000    
  -2.9028568113703825E-002 -0.29766018500492680        0.00000000    
   1.5013445102345774E-003 -0.29151908149644390        0.00000000    
   3.4468777233907254E-002 -0.29845294049401233        0.00000000    
   5.5655420283092068E-002 -0.29577861387990056        0.00000000    
   7.3807906109165128E-002 -0.28647058435208672        0.00000000    
   8.8305664970276282E-002 -0.28868806500354416        0.00000000    
   9.7764784633149235E-002 -0.29337823714696426        0.00000000    
  0.10373678912885954      -0.30055488333329150        0.00000000    
  0.10361113317401387      -0.30794067215215998        0.00000000    
   9.6020931313482993E-002 -0.31022549329806931        0.00000000    
   8.2240462610372753E-002 -0.30186373554881413        0.00000000    
   6.3132385795024198E-002 -0.27948043872478906        0.00000000    
   3.9479008160878279E-002 -0.23819562160263499        0.00000000    
   1.5132675597455160E-002 -0.17438813578402967        0.00000000    
  -4.3289215112362238E-003  -8.7997182809814015E-002   0.00000000    
  -1.2341104480633833E-002   1.3928554364273380E-002   0.00000000    
  -5.9776552306811835E-003  0.11776173355170710        0.00000000    
   1.1538640471961369E-002  0.20881709368664253        0.00000000    
   3.1901942370608234E-002  0.27983400215150001        0.00000000    
   4.9373285219949006E-002  0.33098517836920871        0.00000000    
   6.0239975807149314E-002  0.36516288088115290        0.00000000    
   6.3509642048251269E-002  0.38700697571987697        0.00000000    
   5.9616017527114269E-002  0.40016381205047974        0.00000000    
   4.9815787497530066E-002  0.40786177709156568        0.00000000    
   3.5616030106069417E-002  0.41199231041474677        0.00000000    
   1.8519380702043491E-002  0.41404331320313670        0.00000000    
   0.0000000000000000       0.41460465742598257        0.00000000    
   0.0000000000000000       0.42855184261022888        0.00000000    
  -8.5140528072270034E-003  0.42732258761456787        0.00000000    
  -1.5732287987284644E-002  0.42335363296017081        0.00000000    
  -2.0404816518783356E-002  0.41595661890735847        0.00000000    
  -2.1307935391095711E-002  0.40382994305870545        0.00000000    
  -1.7494919785392488E-002  0.38512342374416031        0.00000000    
  -8.4073137972828626E-003  0.35739377333149924        0.00000000    
   5.5697858013012197E-003  0.31779015818903628        0.00000000    
   2.2679568379777481E-002  0.26379660763842983        0.00000000    
   3.9515486901048856E-002  0.19427719868102494        0.00000000    
   5.1154144447927416E-002  0.11129554211939145        0.00000000    
   5.3379289578406382E-002   2.1290528503766854E-002   0.00000000    
   4.4539981318854803E-002  -6.6856507067354631E-002   0.00000000    
   2.6169075265530421E-002 -0.14415579909727178        0.00000000    
   2.7068293592286252E-003 -0.20498761811335539        0.00000000    
  -2.1422881907155623E-002 -0.24808033423041712        0.00000000    