 <VTKFile type="UnstructuredGrid" version="0.1" byte_order="BigEndian">
 <UnstructuredGrid>
 <Piece NumberOfPoints="        2601 " NumberOfCells="        2500 ">
 <PointData Scalars="scalars">
 <DataArray type="Float32" NumberOfComponents="3" Name="Velocity" Format="ascii">
   0.0000000000000000        0.0000000000000000        0.00000000    
  -2.8288700542706390E-002   0.0000000000000000        0.00000000    
  -5.6161483119672652E-002   0.0000000000000000        0.00000000    
  -8.3200473092477203E-002   0.0000000000000000        0.00000000    
 -0.10901114022954041        0.0000000000000000        0.00000000    
 -0.13319350533655716        0.0000000000000000        0.00000000    
 -0.15539371533852173        0.0000000000000000        0.00000000    
 -0.17525015886718229        0.0000000000000000        0.00000000    
 -0.19246886069917998        0.0000000000000000        0.00000000    
 -0.20674748984991623        0.0000000000000000        0.00000000    
 -0.21787062028976353        0.0000000000000000        0.00000000    
 -0.22561575858337346        0.0000000000000000        0.00000000    
 -0.22986306825051298        0.0000000000000000        0.00000000    
 -0.23048857112708415        0.0000000000000000        0.00000000    
 -0.22748166038486731        0.0000000000000000        0.00000000    
 -0.22083149252024556        0.0000000000000000        0.00000000    
 -0.21064468294872163        0.0000000000000000        0.00000000    
 -0.19703155120599564        0.0000000000000000        0.00000000    
 -0.18021597760046695        0.0000000000000000        0.00000000    
 -0.16042850881211126        0.0000000000000000        0.00000000    
 -0.13800059853203192        0.0000000000000000        0.00000000    
 -0.11327154182251946        0.0000000000000000        0.00000000    
  -8.6660290483177152E-002   0.0000000000000000        0.00000000    
  -5.8592669127708281E-002   0.0000000000000000        0.00000000    
  -2.9545599345037421E-002   0.0000000000000000        0.00000000    
   7.8249376698531306E-010   0.0000000000000000        0.00000000    
   2.9545600911857654E-002   0.0000000000000000        0.00000000    
   5.8592670716734505E-002   0.0000000000000000        0.00000000    
   8.6660292101566908E-002   0.0000000000000000        0.00000000    
  0.11327154343680275        0.0000000000000000        0.00000000    
  0.13800060022746627        0.0000000000000000        0.00000000    
  0.16042851062411012        0.0000000000000000        0.00000000    
  0.18021597968155248        0.0000000000000000        0.00000000    
  0.19703155353677754        0.0000000000000000        0.00000000    
  0.21064468560593513        0.0000000000000000        0.00000000    
  0.22083149550659539        0.0000000000000000        0.00000000    
  0.22748166354627930        0.0000000000000000        0.00000000    
  0.23048857431928910        0.0000000000000000        0.00000000    
  0.22986307152270652        0.0000000000000000        0.00000000    
  0.22561576199922495        0.0000000000000000        0.00000000    
  0.21787062367399571        0.0000000000000000        0.00000000    
  0.20674749321488059        0.0000000000000000        0.00000000    
  0.19246886380447767        0.0000000000000000        0.00000000    
  0.17525016174515468        0.0000000000000000        0.00000000    
  0.15539371791474563        0.0000000000000000        0.00000000    
  0.13319350757244958        0.0000000000000000        0.00000000    
  0.10901114210511918        0.0000000000000000        0.00000000    
   8.3200474608130418E-002   0.0000000000000000        0.00000000    
   5.6161484120141991E-002   0.0000000000000000        0.00000000    
   2.8288701056803738E-002   0.0000000000000000        0.00000000    
   0.0000000000000000        0.0000000000000000        0.00000000    
   0.0000000000000000        2.8449957586593692E-002   0.00000000    
  -2.8399000689444492E-002   2.8239409178776535E-002   0.00000000    
  -5.6377592065467698E-002   2.7613630267819822E-002   0.00000000    
  -8.3527092846304191E-002   2.6576525899687880E-002   0.00000000    
 -0.10943488891242163        2.5143602600707155E-002   0.00000000    
 -0.13372328649832116        2.3328825234350762E-002   0.00000000    
 -0.15600756442675923        2.1157327650990498E-002   0.00000000    
 -0.17596024594461221        1.8653462128735313E-002   0.00000000    
 -0.19324524953227351        1.5851907776963600E-002   0.00000000    
 -0.20760437477203708        1.2787510823851959E-002   0.00000000    
 -0.21877113226814410        9.5040410295660557E-003   0.00000000    
 -0.22657474116163678        6.0463697614208268E-003   0.00000000    
 -0.23083831426086832        2.4661762877030693E-003   0.00000000    
 -0.23149426722271660       -1.1830574990598095E-003   0.00000000    
 -0.22847249366669811       -4.8439641786941845E-003   0.00000000    
 -0.22181994198511765       -8.4570930778196645E-003   0.00000000    
 -0.21158518843654509       -1.1962808070105422E-002   0.00000000    
 -0.19793422158368484       -1.5299628861136023E-002   0.00000000    
 -0.18103833747039866       -1.8410167477945792E-002   0.00000000    
 -0.16117805775610250       -2.1235919909491432E-002   0.00000000    
 -0.13864144743698770       -2.3726939807143226E-002   0.00000000    
 -0.11380869330097131       -2.5833210359104557E-002   0.00000000    
  -8.7067684884815755E-002  -2.7517388881875444E-002   0.00000000    
  -5.8873111556043294E-002  -2.8743145415821465E-002   0.00000000    
  -2.9685372497013116E-002  -2.9490003124724561E-002   0.00000000    
   7.7728811396428973E-010  -2.9739310019639968E-002   0.00000000    
   2.9685374053152455E-002  -2.9490003128120359E-002   0.00000000    
   5.8873113126143448E-002  -2.8743145448592321E-002   0.00000000    
   8.7067686463780047E-002  -2.7517388887332184E-002   0.00000000    
  0.11380869490601381       -2.5833210375619850E-002   0.00000000    
  0.13864144904283418       -2.3726939872582797E-002   0.00000000    
  0.16117805951905090       -2.1235920117718254E-002   0.00000000    
  0.18103833943986930       -1.8410167745327801E-002   0.00000000    
  0.19793422392653062       -1.5299629216825358E-002   0.00000000    
  0.21158519113512392       -1.1962808396580746E-002   0.00000000    
  0.22181994487770143       -8.4570932744858045E-003   0.00000000    
  0.22847249669210451       -4.8439642899126027E-003   0.00000000    
  0.23149427040283663       -1.1830575733478889E-003   0.00000000    
  0.23083831751323466        2.4661762097565091E-003   0.00000000    
  0.22657474436689970        6.0463697428130249E-003   0.00000000    
  0.21877113551355995        9.5040410396403565E-003   0.00000000    
  0.20760437791099756        1.2787510939501081E-002   0.00000000    
  0.19324525258408437        1.5851908008130956E-002   0.00000000    
  0.17596024871110377        1.8653462410212564E-002   0.00000000    
  0.15600756691860834        2.1157327945904358E-002   0.00000000    
  0.13372328867839886        2.3328825591539763E-002   0.00000000    
  0.10943489077433255        2.5143602921998656E-002   0.00000000    
   8.3527094270412897E-002   2.6576526376124537E-002   0.00000000    
   5.6377593030715163E-002   2.7613630765428370E-002   0.00000000    
   2.8399001159657905E-002   2.8239409662574159E-002   0.00000000    
   0.0000000000000000        2.8449958087106986E-002   0.00000000    
   0.0000000000000000        5.7117377632457542E-002   0.00000000    
  -2.8726105127305595E-002   5.6698698649683542E-002   0.00000000    
  -5.7032150270809580E-002   5.5440580975222940E-002   0.00000000    
  -8.4495860870543255E-002   5.3364390152928202E-002   0.00000000    
 -0.11071849170382501        5.0487768705480912E-002   0.00000000    
 -0.13529510795752617        4.6851276274706158E-002   0.00000000    
 -0.15786733372669759        4.2492983418796079E-002   0.00000000    
 -0.17806790892165469        3.7472665965363944E-002   0.00000000    
 -0.19559800266136396        3.1849403901777491E-002   0.00000000    
 -0.21014907243057163        2.5701812069769337E-002   0.00000000    
 -0.22150076904962135        1.9109795955245253E-002   0.00000000    
 -0.22942428507141363        1.2169341497673916E-002   0.00000000    
 -0.23379537186887298        4.9794658597737199E-003   0.00000000    
 -0.23448441696751235       -2.3497479276343913E-003   0.00000000    
 -0.23147774112820665       -9.7041224066629194E-003   0.00000000    
 -0.22476054589345404       -1.6965081354426988E-002   0.00000000    
 -0.21443864027613005       -2.4009878879322231E-002   0.00000000    
 -0.20062108546435287       -3.0719479940908585E-002   0.00000000    
 -0.18353400888482441       -3.6971677612833480E-002   0.00000000    
 -0.16341016575003892       -4.2656933407207921E-002   0.00000000    
 -0.14058670188657371       -4.7664401518842742E-002   0.00000000    
 -0.11540885216191955       -5.1904753736058670E-002   0.00000000    
  -8.8304496079703212E-002  -5.5289611403657131E-002   0.00000000    
  -5.9708723109612442E-002  -5.7759670719921954E-002   0.00000000    
  -3.0109744892504880E-002  -5.9258596713140793E-002   0.00000000    
   7.4566747222081189E-010  -5.9764237003317525E-002   0.00000000    
   3.0109746403737200E-002  -5.9258596737997070E-002   0.00000000    
   5.9708724608565744E-002  -5.7759670732913944E-002   0.00000000    
   8.8304497565651327E-002  -5.5289611424751611E-002   0.00000000    
  0.11540885367665793       -5.1904753791804953E-002   0.00000000    
  0.14058670356718256       -4.7664401711725528E-002   0.00000000    
  0.16341016751528475       -4.2656933729730451E-002   0.00000000    
  0.18353401092021035       -3.6971678242582004E-002   0.00000000    
  0.20062108781864013       -3.0719480626507711E-002   0.00000000    
  0.21443864283633129       -2.4009879437534798E-002   0.00000000    
  0.22476054861985742       -1.6965081679562826E-002   0.00000000    
  0.23147774398427867       -9.7041226519028762E-003   0.00000000    
  0.23448441996343292       -2.3497481624628548E-003   0.00000000    
  0.23379537493169578        4.9794658032192504E-003   0.00000000    
  0.22942428811544291        1.2169341523571103E-002   0.00000000    
  0.22150077192611342        1.9109796048198981E-002   0.00000000    
  0.21014907528675011        2.5701812229308393E-002   0.00000000    
  0.19559800536045496        3.1849404333292052E-002   0.00000000    
  0.17806791144542791        3.7472666507131082E-002   0.00000000    
  0.15786733596353059        4.2492984015002878E-002   0.00000000    
  0.13529510994712743        4.6851276889605331E-002   0.00000000    
  0.11071849335940803        5.0487769421247421E-002   0.00000000    
   8.4495862145770123E-002   5.3364391053048604E-002   0.00000000    
   5.7032151128127449E-002   5.5440581925918081E-002   0.00000000    
   2.8726105566134197E-002   5.6698699593918003E-002   0.00000000    
   0.0000000000000000        5.7117378581576173E-002   0.00000000    
   0.0000000000000000        8.6226003522704667E-002   0.00000000    
  -2.9272463482395129E-002   8.5590183275859683E-002   0.00000000    
  -5.8116186473259682E-002   8.3700406349949588E-002   0.00000000    
  -8.6114327091958140E-002   8.0567957777956778E-002   0.00000000    
 -0.11284508272361639        7.6239129208329731E-002   0.00000000    
 -0.13792214821894330        7.0755139018013405E-002   0.00000000    
 -0.16095026664530099        6.4191006178041965E-002   0.00000000    
 -0.18159259279190371        5.6619085617401185E-002   0.00000000    
 -0.19950111209819923        4.8143138114239363E-002   0.00000000    
 -0.21440771027701802        3.8867286328370200E-002   0.00000000    
 -0.22603313891025875        2.8922987173976681E-002   0.00000000    
 -0.23419700373172336        1.8445071010723010E-002   0.00000000    
 -0.23871009213899133        7.5894511127829363E-003   0.00000000    
 -0.23949695566914284       -3.4822853479531952E-003   0.00000000    
 -0.23647744116799993       -1.4596236459323878E-002   0.00000000    
 -0.22969422203537757       -2.5571843157829066E-002   0.00000000    
 -0.21919022671363833       -3.6227479828077204E-002   0.00000000    
 -0.20513258372885559       -4.6375538933768612E-002   0.00000000    
 -0.18769325179878793       -5.5840489565788159E-002   0.00000000    
 -0.16716059869019584       -6.4443080419517282E-002   0.00000000    
 -0.14383080148272631       -7.2029978537632156E-002   0.00000000    
 -0.11809884928189060       -7.8447441822712793E-002   0.00000000    
  -9.0368097500178296E-002  -8.3580494529776367E-002   0.00000000    
  -6.1113905598670352E-002  -8.7317215952729260E-002   0.00000000    
  -3.0817976379431958E-002  -8.9594422491583739E-002   0.00000000    
   7.1214942107014875E-010  -9.0354597576827955E-002   0.00000000    
   3.0817977736018343E-002  -8.9594422468624924E-002   0.00000000    
   6.1113906943552926E-002  -8.7317215989553360E-002   0.00000000    
   9.0368098861366458E-002  -8.3580494530339153E-002   0.00000000    
  0.11809885071719847       -7.8447442001900958E-002   0.00000000    
  0.14383080300156628       -7.2029978856475427E-002   0.00000000    
  0.16716060049544262       -6.4443080987123119E-002   0.00000000    
  0.18769325380580174       -5.5840490422360313E-002   0.00000000    
  0.20513258576549867       -4.6375539741074674E-002   0.00000000    
  0.21919022886186648       -3.6227480582081903E-002   0.00000000    
  0.22969422449974519       -2.5571843769514213E-002   0.00000000    
  0.23647744394714809       -1.4596236862463719E-002   0.00000000    
  0.23949695845333030       -3.4822855697692790E-003   0.00000000    
  0.23871009487149930        7.5894510279934501E-003   0.00000000    
  0.23419700645433114        1.8445071093549023E-002   0.00000000    
  0.22603314160722762        2.8922987403177995E-002   0.00000000    
  0.21440771276890680        3.8867286577055557E-002   0.00000000    
  0.19950111450047769        4.8143138703305478E-002   0.00000000    
  0.18159259505777020        5.6619086313346528E-002   0.00000000    
  0.16095026877201307        6.4191007046165330E-002   0.00000000    
  0.13792214996773400        7.0755139986149018E-002   0.00000000    
  0.11284508412788433        7.6239130249400974E-002   0.00000000    
   8.6114328142210511E-002   8.0567959087144495E-002   0.00000000    
   5.8116187145294582E-002   8.3700407687704051E-002   0.00000000    
   2.9272463810661977E-002   8.5590184595292315E-002   0.00000000    
   0.0000000000000000        8.6226004863720701E-002   0.00000000    
   0.0000000000000000       0.11598406537115634        0.00000000    
  -3.0032594342087143E-002  0.11513865940850038        0.00000000    
  -5.9633211196354945E-002  0.11259775017391763        0.00000000    
  -8.8366859312384902E-002  0.10840388271815035        0.00000000    
 -0.11582258239793997       0.10259116288176767        0.00000000    
 -0.14158093581641606        9.5240003995092803E-002   0.00000000    
 -0.16527024169315263        8.6425045026984698E-002   0.00000000    
 -0.18650643257095481        7.6265043087091589E-002   0.00000000    
 -0.20497613520179431        6.4876881593026403E-002   0.00000000    
 -0.22035202483878108        5.2417509391753450E-002   0.00000000    
 -0.23239872947957232        3.9046375774916091E-002   0.00000000    
 -0.24086804718027408        2.4956342997345466E-002   0.00000000    
 -0.24562198190965637        1.0346679958542122E-002   0.00000000    
 -0.24651331419861530       -4.5598410243291726E-003   0.00000000    
 -0.24351847976590288       -1.9531552747350509E-002   0.00000000    
 -0.23660999754652962       -3.4326751596960518E-002   0.00000000    
 -0.22589060000118369       -4.8694487999089681E-002   0.00000000    
 -0.21146484551921133       -6.2390452294128672E-002   0.00000000    
 -0.19356516244567271       -7.5163115604422945E-002   0.00000000    
 -0.17243050980787761       -8.6786284799652003E-002   0.00000000    
 -0.14841506061834100       -9.7030545497979265E-002   0.00000000    
 -0.12188190688922348      -0.10571050594908775        0.00000000    
  -9.3286126557255600E-002 -0.11264248786622004        0.00000000    
  -6.3091126622030327E-002 -0.11770293993662706        0.00000000    
  -3.1819792959563477E-002 -0.12077448697282171        0.00000000    
   6.0574476667227697E-010 -0.12181082938184898        0.00000000    
   3.1819794225331884E-002 -0.12077448693642928        0.00000000    
   6.3091127885010284E-002 -0.11770293997239234        0.00000000    
   9.3286127860265772E-002 -0.11264248792417735        0.00000000    
  0.12188190819877542      -0.10571050615154325        0.00000000    
  0.14841506203367416       -9.7030545982868366E-002   0.00000000    
  0.17243051132317835       -8.6786285587586345E-002   0.00000000    
  0.19356516406021393       -7.5163116541673985E-002   0.00000000    
  0.21146484733797064       -6.2390453254603122E-002   0.00000000    
  0.22589060209323025       -4.8694488984798112E-002   0.00000000    
  0.23660999974562930       -3.4326752400134407E-002   0.00000000    
  0.24351848197199991       -1.9531553280779459E-002   0.00000000    
  0.24651331656332504       -4.5598412795077817E-003   0.00000000    
  0.24562198433552343        1.0346679897637264E-002   0.00000000    
  0.24086804959032396        2.4956343082004510E-002   0.00000000    
  0.23239873187709206        3.9046376040453620E-002   0.00000000    
  0.22035202719443625        5.2417509851047470E-002   0.00000000    
  0.20497613735227235        6.4876882266271321E-002   0.00000000    
  0.18650643463216238        7.6265043924540796E-002   0.00000000    
  0.16527024352917205        8.6425046117946963E-002   0.00000000    
  0.14158093741988692        9.5240005350859525E-002   0.00000000    
  0.11582258357093692       0.10259116431020471        0.00000000    
   8.8366860144885442E-002  0.10840388433448472        0.00000000    
   5.9633211778230728E-002  0.11259775183336784        0.00000000    
   3.0032594630913990E-002  0.11513866104305449        0.00000000    
   0.0000000000000000       0.11598406701414472        0.00000000    
   0.0000000000000000       0.14661855497581716        0.00000000    
  -3.1007274486855130E-002  0.14554545708085170        0.00000000    
  -6.1570180474496965E-002  0.14235589374858937        0.00000000    
  -9.1256538635952636E-002  0.13706716373075437        0.00000000    
 -0.11962705266069293       0.12975553716260665        0.00000000    
 -0.14627893302162537       0.12048728149109383        0.00000000    
 -0.17079638649416851       0.10938594467401222        0.00000000    
 -0.19282415157982885        9.6569516930955016E-002   0.00000000    
 -0.21199036599142687        8.2209742049246984E-002   0.00000000    
 -0.22800687093429570        6.6478460440569903E-002   0.00000000    
 -0.24056830209905697        4.9594977135928413E-002   0.00000000    
 -0.24947425732326753        3.1784430785666756E-002   0.00000000    
 -0.25450968405530744        1.3309369502576116E-002   0.00000000    
 -0.25558217597573668       -5.5572908928938096E-003   0.00000000    
 -0.25258989406118526       -2.4519804124691902E-002   0.00000000    
 -0.24556555621179899       -4.3269905591859892E-002   0.00000000    
 -0.23453915629058150       -6.1495717127136827E-002   0.00000000    
 -0.21967891859482466       -7.8873801378821468E-002   0.00000000    
 -0.20115688793013692       -9.5100066610730824E-002   0.00000000    
 -0.17927657141398956      -0.10986288962688788        0.00000000    
 -0.15434993674565364      -0.12289461146898838        0.00000000    
 -0.12680193603231393      -0.13392618161299763        0.00000000    
  -9.7067430788875309E-002 -0.14275568515541009        0.00000000    
  -6.5664396786878895E-002 -0.14918636412146938        0.00000000    
  -3.3118621213020220E-002 -0.15310675965729556        0.00000000    
   6.2262478863559702E-010 -0.15441555978571145        0.00000000    
   3.3118622405200603E-002 -0.15310675962211287        0.00000000    
   6.5664397998403512E-002 -0.14918636417258049        0.00000000    
   9.7067431962740466E-002 -0.14275568520039225        0.00000000    
  0.12680193724409994      -0.13392618187289132        0.00000000    
  0.15434993799928168      -0.12289461204406239        0.00000000    
  0.17927657269760197      -0.10986289045458934        0.00000000    
  0.20115688929789774       -9.5100067691603590E-002   0.00000000    
  0.21967892005833750       -7.8873802495643977E-002   0.00000000    
  0.23453915789855684       -6.1495718374246784E-002   0.00000000    
  0.24556555802878641       -4.3269906449697415E-002   0.00000000    
  0.25258989605983123       -2.4519804792113041E-002   0.00000000    
  0.25558217798886085       -5.5572911871707717E-003   0.00000000    
  0.25450968612557451        1.3309369362469585E-002   0.00000000    
  0.24947425948211827        3.1784430876761118E-002   0.00000000    
  0.24056830425368539        4.9594977411783300E-002   0.00000000    
  0.22800687291216254        6.6478461108172807E-002   0.00000000    
  0.21199036785979863        8.2209742828855389E-002   0.00000000    
  0.19282415323642846        9.6569517963083440E-002   0.00000000    
  0.17079638793923951       0.10938594600701211        0.00000000    
  0.14627893420822163       0.12048728309584622        0.00000000    
  0.11962705369714800       0.12975553892267341        0.00000000    
   9.1256539392282940E-002  0.13706716563608071        0.00000000    
   6.1570180867482588E-002  0.14235589573301707        0.00000000    
   3.1007274658041796E-002  0.14554545890527643        0.00000000    
   0.0000000000000000       0.14661855688894862        0.00000000    
   0.0000000000000000       0.17832407104025402        0.00000000    
  -3.2188324546386815E-002  0.17703689683746648        0.00000000    
  -6.3926571461798740E-002  0.17316696363141193        0.00000000    
  -9.4760236134803971E-002  0.16677747332899362        0.00000000    
 -0.12425952341842002       0.15791638536760602        0.00000000    
 -0.15198207050803106       0.14670221705647993        0.00000000    
 -0.17753498135409632       0.13324272950273239        0.00000000    
 -0.20050670849406479       0.11771358015207370        0.00000000    
 -0.22055977541287214       0.10028631565847949        0.00000000    
 -0.23733510874987451        8.1195080296991184E-002   0.00000000    
 -0.25057146973726546        6.0677504230806478E-002   0.00000000    
 -0.25998682132522050        3.9024564942516299E-002   0.00000000    
 -0.26541851862054355        1.6537713385605377E-002   0.00000000    
 -0.26668758188291547       -6.4427259646198595E-003   0.00000000    
 -0.26375164608371510       -2.9561233580093216E-002   0.00000000    
 -0.25655923436714789       -5.2443872900592513E-002   0.00000000    
 -0.24520562114047062       -7.4700410593242492E-002   0.00000000    
 -0.22978526925323317       -9.5948345483282446E-002   0.00000000    
 -0.21053950212542719      -0.11579196867341597        0.00000000    
 -0.18771607301515036      -0.13387338187715128        0.00000000    
 -0.16169729139264247      -0.14982818451445792        0.00000000    
 -0.13287608353519725      -0.16336046638412807        0.00000000    
 -0.10175426449388761      -0.17417637414137110        0.00000000    
  -6.8844236707590975E-002 -0.18207738654838354        0.00000000    
  -3.4729480380386958E-002 -0.18687491887377489        0.00000000    
   5.0502927979151250E-010 -0.18849415308469539        0.00000000    
   3.4729481446560448E-002 -0.18687491884163798        0.00000000    
   6.8844237716351717E-002 -0.18207738655838021        0.00000000    
  0.10175426556043481      -0.17417637424759461        0.00000000    
  0.13287608470642770      -0.16336046672538476        0.00000000    
  0.16169729258206011      -0.14982818506819792        0.00000000    
  0.18771607424886097      -0.13387338280046404        0.00000000    
  0.21053950333247870      -0.11579196971616666        0.00000000    
  0.22978527054367942       -9.5948346817373464E-002   0.00000000    
  0.24520562252495237       -7.4700411861581842E-002   0.00000000    
  0.25655923578375722       -5.2443873978340209E-002   0.00000000    
  0.26375164762166364       -2.9561234330602069E-002   0.00000000    
  0.26668758358227518       -6.4427263516980164E-003   0.00000000    
  0.26541852044615999        1.6537713154900394E-002   0.00000000    
  0.25998682314438448        3.9024565042078255E-002   0.00000000    
  0.25057147143708786        6.0677504621757659E-002   0.00000000    
  0.23733511048768846        8.1195080988268165E-002   0.00000000    
  0.22055977704376969       0.10028631663082534        0.00000000    
  0.20050670987986605       0.11771358144833301        0.00000000    
  0.17753498247453028       0.13324273104849743        0.00000000    
  0.15198207153866816       0.14670221879673892        0.00000000    
  0.12425952422772107       0.15791638736364363        0.00000000    
   9.4760236684244270E-002  0.16677747553833516        0.00000000    
   6.3926571826105491E-002  0.17316696586030275        0.00000000    
   3.2188324691447300E-002  0.17703689885847332        0.00000000    
   0.0000000000000000       0.17832407307305070        0.00000000    
   0.0000000000000000       0.21132650272047293        0.00000000    
  -3.3573830917952519E-002  0.20979791579459459        0.00000000    
  -6.6682571633187943E-002  0.20525422742997937        0.00000000    
  -9.8873626784464042E-002  0.19771622436937403        0.00000000    
 -0.12968381141702245       0.18728840111649425        0.00000000    
 -0.15868758738324520       0.17405781902106651        0.00000000    
 -0.18543984430433932       0.15819358973468323        0.00000000    
 -0.20955862023402327       0.13985451710926583        0.00000000    
 -0.23063645382185899       0.11927757302399779        0.00000000    
 -0.24835465630899853        9.6698652183297082E-002   0.00000000    
 -0.26236725321168691        7.2424183299720515E-002   0.00000000    
 -0.27244186959747985        4.6769146466654053E-002   0.00000000    
 -0.27832165708307288        2.0105908860281636E-002   0.00000000    
 -0.27988556554542998       -7.1766579743094520E-003   0.00000000    
 -0.27699504381036349       -3.4652467780851307E-002   0.00000000    
 -0.26966411342699753       -6.1874689956126688E-002   0.00000000    
 -0.25789895239673100       -8.8387077356168173E-002   0.00000000    
 -0.24186616638048580      -0.11371352663676283        0.00000000    
 -0.22173450151465254      -0.13740292989319111        0.00000000    
 -0.19782855460077781      -0.15899050745260090        0.00000000    
 -0.17048267910109874      -0.17807442713452989        0.00000000    
 -0.14016759905961595      -0.19424922303940481        0.00000000    
 -0.10736687008154634      -0.20720887709733266        0.00000000    
  -7.2665737752658402E-002 -0.21665475549128657        0.00000000    
  -3.6660029990894280E-002 -0.22241672591562597        0.00000000    
   4.2288284224367703E-010 -0.22434056930348695        0.00000000    
   3.6660030805476973E-002 -0.22241672590842090        0.00000000    
   7.2665738601877805E-002 -0.21665475545357499        0.00000000    
  0.10736687092718629      -0.20720887730547122        0.00000000    
  0.14016759993664779      -0.19424922341482198        0.00000000    
  0.17048268003546699      -0.17807442772963292        0.00000000    
  0.19782855551559270      -0.15899050835929027        0.00000000    
  0.22173450251571827      -0.13740293101215684        0.00000000    
  0.24186616740796377      -0.11371352800444566        0.00000000    
  0.25789895344277586       -8.8387078703517807E-002   0.00000000    
  0.26966411461083384       -6.1874691124783179E-002   0.00000000    
  0.27699504509860190       -3.4652468666192662E-002   0.00000000    
  0.27988556700032907       -7.1766585546267905E-003   0.00000000    
  0.27832165857923552        2.0105908655295678E-002   0.00000000    
  0.27244187105850654        4.6769146582085516E-002   0.00000000    
  0.26236725472572747        7.2424183741130077E-002   0.00000000    
  0.24835465766462458        9.6698652944538777E-002   0.00000000    
  0.23063645511333286       0.11927757409744749        0.00000000    
  0.20955862141109646       0.13985451866391824        0.00000000    
  0.18543984537001737       0.15819359139881753        0.00000000    
  0.15868758826373383       0.17405782091794281        0.00000000    
  0.12968381211029661       0.18728840336446517        0.00000000    
   9.8873627325461802E-002  0.19771622673892003        0.00000000    
   6.6682572028179288E-002  0.20525422982980596        0.00000000    
   3.3573831141647123E-002  0.20979791803520878        0.00000000    
   0.0000000000000000       0.21132650490241731        0.00000000    
   0.0000000000000000       0.24579970886001135        0.00000000    
  -3.5151196717222312E-002  0.24405097090428984        0.00000000    
  -6.9830899383252792E-002  0.23879084925532809        0.00000000    
 -0.10356105170582015       0.23010204346959215        0.00000000    
 -0.13588888684657846       0.21804183506321528        0.00000000    
 -0.16634287137900988       0.20276337864721000        0.00000000    
 -0.19450263297840167       0.18440128141558684        0.00000000    
 -0.21991952671088086       0.16318372758977437        0.00000000    
 -0.24222280661011000       0.13933070814651091        0.00000000    
 -0.26100820286832088       0.11315034756116153        0.00000000    
 -0.27597660892316095        8.4954722175063335E-002   0.00000000    
 -0.28679546730700639        5.5133313241139938E-002   0.00000000    
 -0.29326386875098215        2.4091161385237640E-002   0.00000000    
 -0.29515307269039737       -7.7075681741554112E-003   0.00000000    
 -0.29238916868096360       -3.9774753933488907E-002   0.00000000    
 -0.28488060896094636       -7.1590664965254555E-002   0.00000000    