 <VTKFile type="UnstructuredGrid" version="0.1" byte_order="BigEndian">
 <UnstructuredGrid>
 <Piece NumberOfPoints="        2601 " NumberOfCells="        2500 ">
 <PointData Scalars="scalars">
 <DataArray type="Float32" NumberOfComponents="3" Name="Velocity" Format="ascii">
   0.0000000000000000        0.0000000000000000        0.00000000    
 -0.11075593914008340        0.0000000000000000        0.00000000    
 -0.22171832130760322        0.0000000000000000        0.00000000    
 -0.33268286076020387        0.0000000000000000        0.00000000    
 -0.44420893849225290        0.0000000000000000        0.00000000    
 -0.55556234418548600        0.0000000000000000        0.00000000    
 -0.66762961167427937        0.0000000000000000        0.00000000    
 -0.77892493275964791        0.0000000000000000        0.00000000    
 -0.89063842613474331        0.0000000000000000        0.00000000    
  -1.0001500716852521        0.0000000000000000        0.00000000    
  -1.1088843788707083        0.0000000000000000        0.00000000    
  -1.2124917027976365        0.0000000000000000        0.00000000    
  -1.3124143724195874        0.0000000000000000        0.00000000    
  -1.4018640916037433        0.0000000000000000        0.00000000    
  -1.4816548672781218        0.0000000000000000        0.00000000    
  -1.5424203154846725        0.0000000000000000        0.00000000    
  -1.5824893841723926        0.0000000000000000        0.00000000    
  -1.5922754612387093        0.0000000000000000        0.00000000    
  -1.5638782556555755        0.0000000000000000        0.00000000    
  -1.4929846088576859        0.0000000000000000        0.00000000    
  -1.3649849203642450        0.0000000000000000        0.00000000    
  -1.1866168549496927        0.0000000000000000        0.00000000    
 -0.94663342007554530        0.0000000000000000        0.00000000    
 -0.66347315361537296        0.0000000000000000        0.00000000    
 -0.34028057280236451        0.0000000000000000        0.00000000    
   6.6605666088199872E-005   0.0000000000000000        0.00000000    
  0.34041233805401377        0.0000000000000000        0.00000000    
  0.66360069994283410        0.0000000000000000        0.00000000    
  0.94675452471429455        0.0000000000000000        0.00000000    
   1.1867300028066514        0.0000000000000000        0.00000000    
   1.3650891400753284        0.0000000000000000        0.00000000    
   1.4930799572153672        0.0000000000000000        0.00000000    
   1.5639643623308128        0.0000000000000000        0.00000000    
   1.5923534641082928        0.0000000000000000        0.00000000    
   1.5825587630671347        0.0000000000000000        0.00000000    
   1.5424827359962934        0.0000000000000000        0.00000000    
   1.4817095563448177        0.0000000000000000        0.00000000    
   1.4019128608776192        0.0000000000000000        0.00000000    
   1.3124564058043093        0.0000000000000000        0.00000000    
   1.2125287456484384        0.0000000000000000        0.00000000    
   1.1089157337721374        0.0000000000000000        0.00000000    
   1.0001772895186740        0.0000000000000000        0.00000000    
  0.89066097788326315        0.0000000000000000        0.00000000    
  0.77894409423549937        0.0000000000000000        0.00000000    
  0.66764500673910754        0.0000000000000000        0.00000000    
  0.55557493265826297        0.0000000000000000        0.00000000    
  0.44421847101719791        0.0000000000000000        0.00000000    
  0.33268997126598371        0.0000000000000000        0.00000000    
  0.22172286806532954        0.0000000000000000        0.00000000    
  0.11075823566772001        0.0000000000000000        0.00000000    
   0.0000000000000000        0.0000000000000000        0.00000000    
   0.0000000000000000       0.11029242210188568        0.00000000    
 -0.10983294703356200       0.11029797992701132        0.00000000    
 -0.21966677786725591       0.11049974857642185        0.00000000    
 -0.32987219089933151       0.11067171863544001        0.00000000    
 -0.43999691678901626       0.11098059862302476        0.00000000    
 -0.55074315290558851       0.11112055520123552        0.00000000    
 -0.66104424288081232       0.11124931235067595        0.00000000    
 -0.77191430296096708       0.11091757627809462        0.00000000    
 -0.88138382079841116       0.11026693945478817        0.00000000    
 -0.99074527613412933       0.10860766206547690        0.00000000    
  -1.0966447727538602       0.10602763812824158        0.00000000    
  -1.2005464927240490       0.10148289661862740        0.00000000    
  -1.2970069667236557        9.4901731878527407E-002   0.00000000    
  -1.3873506099089141        8.4893107641346860E-002   0.00000000    
  -1.4633654857789473        7.0914012745588229E-002   0.00000000    
  -1.5253212321593463        5.1808640170046286E-002   0.00000000    
  -1.5627553537227137        2.5695996963287292E-002   0.00000000    
  -1.5722796851105127       -6.3841552870778223E-003   0.00000000    
  -1.5456788776425301       -4.8612439925360448E-002   0.00000000    
  -1.4714556096520883       -9.6503073429844599E-002   0.00000000    
  -1.3506640234594898      -0.15228681856793230        0.00000000    
  -1.1675141745372606      -0.20922973034805101        0.00000000    
 -0.93635968322410812      -0.26190684871906228        0.00000000    
 -0.65172984491342190      -0.30588192293517713        0.00000000    
 -0.33613846064208774      -0.33290072062768455        0.00000000    
   6.6911847504016466E-005 -0.34365051431945592        0.00000000    
  0.33627077007082629      -0.33289776028071300        0.00000000    
  0.65185786593325268      -0.30587637594853900        0.00000000    
  0.93648110358358017      -0.26189935335585196        0.00000000    
   1.1676274431242868      -0.20922111715606931        0.00000000    
   1.3507684306751371      -0.15227764224158521        0.00000000    
   1.4715506779028813       -9.6494039436882631E-002   0.00000000    
   1.5457652992377304       -4.8603585579176850E-002   0.00000000    
   1.5723570714352446       -6.3758705561974653E-003   0.00000000    
   1.5628252008463652        2.5703875409374997E-002   0.00000000    
   1.5253828393402591        5.1815960050633873E-002   0.00000000    
   1.4634206660400240        7.0920851230740989E-002   0.00000000    
   1.3873985176272681        8.4899461492481107E-002   0.00000000    
   1.2970494244299169        9.4907563929570754E-002   0.00000000    
   1.2005827262292554       0.10148827930327824        0.00000000    
   1.0966764592917182       0.10603249036120360        0.00000000    
  0.99077180438183376       0.10861210519139140        0.00000000    
  0.88140662052612984       0.11027089093461721        0.00000000    
  0.77193292772787647       0.11092119003245492        0.00000000    
  0.66105981483507759       0.11125251782080198        0.00000000    
  0.55075536468779540       0.11112351649593045        0.00000000    
  0.44000656373994762       0.11098325810822145        0.00000000    
  0.32987908045801612       0.11067423856236919        0.00000000    
  0.21967138082067797       0.11050207900356313        0.00000000    
  0.10983517072425031       0.11030027899341227        0.00000000    
   0.0000000000000000       0.11029464325454212        0.00000000    
   0.0000000000000000       0.21857060042036597        0.00000000    
 -0.10690585952546403       0.21876006252800645        0.00000000    
 -0.21396411013158134       0.21893120137107644        0.00000000    
 -0.32094263348624014       0.21942565554626339        0.00000000    
 -0.42832191314156320       0.21973211932391459        0.00000000    
 -0.53537334048949947       0.22016814870414719        0.00000000    
 -0.64287993013859335       0.22001084699132345        0.00000000    
 -0.74941178362792404       0.21955940159426651        0.00000000    
 -0.85603799431730798       0.21772228564370807        0.00000000    
 -0.96026978579557509       0.21474700254004653        0.00000000    
  -1.0634262361822449       0.20894567956183879        0.00000000    
  -1.1613627538382361       0.20040452328479830        0.00000000    
  -1.2555471387980950       0.18662638765768444        0.00000000    
  -1.3392821000155037       0.16724847354620093        0.00000000    
  -1.4139581297439838       0.13925096008985843        0.00000000    
  -1.4694673309775410       0.10093803930208793        0.00000000    
  -1.5063978783118266        5.0932652921009174E-002   0.00000000    
  -1.5123070121866331       -1.6185972613590970E-002   0.00000000    
  -1.4834691382319298       -9.4247945793440049E-002   0.00000000    
  -1.4149992562764024      -0.19355937792409197        0.00000000    
  -1.2900441051472751      -0.30097592816518903        0.00000000    
  -1.1196509580607885      -0.41408231619127389        0.00000000    
 -0.88814615524179130      -0.51971227211071092        0.00000000    
 -0.61981065389528334      -0.60104057357287721        0.00000000    
 -0.31659385692313313      -0.65654899605318884        0.00000000    
   6.7767897504751118E-005 -0.67286798862086716        0.00000000    
  0.31672780603352280      -0.65654293475511705        0.00000000    
  0.61994000156040585      -0.60102923768258831        0.00000000    
  0.88826856567934465      -0.51969702776233873        0.00000000    
   1.1197647577811776      -0.41406468949378278        0.00000000    
   1.2901486140092180      -0.30095761311342595        0.00000000    
   1.4150945313095085      -0.19354090986163913        0.00000000    
   1.4835549698765031       -9.4230435471694157E-002   0.00000000    
   1.5123846443465976       -1.6169109101969708E-002   0.00000000    
   1.5064666794396040        5.0948322820309110E-002   0.00000000    
   1.4695291494183123       0.10095279036040987        0.00000000    
   1.4140120610029798       0.13926468149943863        0.00000000    
   1.3393300793472125       0.16726116894407383        0.00000000    
   1.2555883019631158       0.18663814434128984        0.00000000    
   1.1613989285051958       0.20041519403710273        0.00000000    
   1.0634567281372196       0.20895547340701653        0.00000000    
  0.96029619592088800       0.21475574417459847        0.00000000    
  0.85605980639274792       0.21773026518532668        0.00000000    
  0.74943029101691228       0.21956646693506068        0.00000000    
  0.64289476716181326       0.22001732405403218        0.00000000    
  0.53538546478818605       0.22017391130374145        0.00000000    
  0.42833108185418173       0.21973749792219335        0.00000000    
  0.32094947180745048       0.21943054414458910        0.00000000    
  0.21396847897513752       0.21893591921041167        0.00000000    
  0.10690806654534024       0.21876451526939122        0.00000000    
   0.0000000000000000       0.21857509860931790        0.00000000    
   0.0000000000000000       0.32325814418100079        0.00000000    
 -0.10225401828905641       0.32323378975966388        0.00000000    
 -0.20442834714981201       0.32369144651284676        0.00000000    
 -0.30676401944607684       0.32398099811856174        0.00000000    
 -0.40878412027584043       0.32457754846617182        0.00000000    
 -0.51101127875788510       0.32460269485390686        0.00000000    
 -0.61243247663385914       0.32450547636970967        0.00000000    
 -0.71383390231563815       0.32299943652421742        0.00000000    
 -0.81342197168310149       0.32049791370862651        0.00000000    
 -0.91223693716447252       0.31501951011330637        0.00000000    
  -1.0072734463830828       0.30686750714497779        0.00000000    
  -1.0998169663780373       0.29296410279734375        0.00000000    
  -1.1848708969976134       0.27330648880367364        0.00000000    
  -1.2639891203032345       0.24342291342173833        0.00000000    
  -1.3287824229715304       0.20254720293925510        0.00000000    
  -1.3814304130224992       0.14580032636202089        0.00000000    
  -1.4084018298505954        6.9973659419950443E-002   0.00000000    
  -1.4129962832075404       -2.4722077287918722E-002   0.00000000    
  -1.3781480619953252      -0.14939663692903687        0.00000000    
  -1.3015143297612810      -0.28351301731377515        0.00000000    
  -1.1898839366167167      -0.44760657459856423        0.00000000    
  -1.0111286785068352      -0.61659883255159598        0.00000000    
 -0.79618807770211630      -0.76363994536024216        0.00000000    
 -0.54139090275281010      -0.88024437797013788        0.00000000    
 -0.27489089621340218      -0.94706081531163966        0.00000000    
   6.9005785106621419E-005 -0.97397652323698169        0.00000000    
  0.27502730792050717      -0.94705156746557617        0.00000000    
  0.54152250289513004      -0.88022681561701510        0.00000000    
  0.79631203310603460      -0.76361634550765101        0.00000000    
   1.0112436137410254      -0.61657193047013681        0.00000000    
   1.1899889210459351      -0.44757829326602322        0.00000000    
   1.3016095415171125      -0.28348550902878705        0.00000000    
   1.3782341529617170      -0.14936960265050178        0.00000000    
   1.4130727782082071       -2.4696942282124150E-002   0.00000000    
   1.4084707064134097        6.9997507296512676E-002   0.00000000    
   1.3814906498339936       0.14582252188176284        0.00000000    
   1.3288361400727342       0.20256788678086299        0.00000000    
   1.2640353149416361       0.24344212077796182        0.00000000    
   1.1849115992178718       0.27332404211509131        0.00000000    
   1.0998513822283487       0.29298025179016590        0.00000000    
   1.0073033868489878       0.30688198084727786        0.00000000    
  0.91226181671537465       0.31503271463579297        0.00000000    
  0.81344327938126115       0.32050960026606956        0.00000000    
  0.71385121721551703       0.32301009233438127        0.00000000    
  0.61244692793289235       0.32451489693069524        0.00000000    
  0.51102257397301820       0.32461138276418822        0.00000000    
  0.40879303811698570       0.32458533471474360        0.00000000    
  0.30677037580995092       0.32398837093587246        0.00000000    
  0.20443259482375678       0.32369825830160748        0.00000000    
  0.10225606781853043       0.32324050852044012        0.00000000    
   0.0000000000000000       0.32326463290065310        0.00000000    
   0.0000000000000000       0.42216590439202223        0.00000000    
  -9.5859499224640168E-002  0.42244087946946135        0.00000000    
 -0.19172046494308853       0.42252098336993016        0.00000000    
 -0.28727307095792964       0.42304107111248823        0.00000000    
 -0.38277512224019866       0.42304095782663781        0.00000000    
 -0.47751206558155501       0.42310471663677784        0.00000000    
 -0.57196709795647160       0.42188101185756682        0.00000000    
 -0.66486301460665465       0.41992256893407054        0.00000000    
 -0.75689461787080359       0.41519577596195439        0.00000000    
 -0.84594717814495701       0.40819049356500448        0.00000000    
 -0.93293458986505173       0.39572175943454568        0.00000000    
  -1.0143842155116498       0.37810430808121337        0.00000000    
  -1.0914947315021462       0.35033203471863850        0.00000000    
  -1.1583016352551470       0.31232379519497666        0.00000000    
  -1.2166171030378723       0.25675638188578970        0.00000000    
  -1.2552550844054617       0.18287840337339767        0.00000000    
  -1.2786773189121661        8.3290504131112317E-002   0.00000000    
  -1.2660017362832652       -4.6118790455371615E-002   0.00000000    
  -1.2285179003841908      -0.20033073730937254        0.00000000    
  -1.1376180423984030      -0.40011128349320452        0.00000000    
 -0.99168603519802179      -0.58856949912873024        0.00000000    
 -0.84180666131565052      -0.80426937002309584        0.00000000    
 -0.61736122415843964       -1.0153542940028339        0.00000000    
 -0.37741165348339611       -1.1232756550831153        0.00000000    
 -0.17277681794056307       -1.1751632776102134        0.00000000    
   7.0155266739871505E-005  -1.1936798498007655        0.00000000    
  0.17291581877570042       -1.1751511202023246        0.00000000    
  0.37754624026060241       -1.1232517766680361        0.00000000    
  0.61748790946036780       -1.0153214639969079        0.00000000    
  0.84192312478245557      -0.80423245608849903        0.00000000    
  0.99179285079747281      -0.58853163097540573        0.00000000    
   1.1377139984828530      -0.40007272983920700        0.00000000    
   1.2286030856063177      -0.20029485674735184        0.00000000    
   1.2660784630665480       -4.6084447326928853E-002   0.00000000    
   1.2787443686536191        8.3322439364873546E-002   0.00000000    
   1.2553149396797290       0.18290834575604362        0.00000000    
   1.2166685391138090       0.25678425777313446        0.00000000    
   1.1583469705816940       0.31234943371922963        0.00000000    
   1.0915330341809080       0.35035568192802025        0.00000000    
   1.0144175756639471       0.37812559207397667        0.00000000    
  0.93296234751713125       0.39574117602169939        0.00000000    
  0.84597106738028971       0.40820768453575346        0.00000000    
  0.75691416591374971       0.41521138911654731        0.00000000    
  0.66487954447930908       0.41993630911687047        0.00000000    
  0.57198027184081046       0.42189356763546831        0.00000000    
  0.47752281824643533       0.42311584663456386        0.00000000    
  0.38278322529692693       0.42305132897033526        0.00000000    
  0.28727911533943268       0.42305047918809341        0.00000000    
  0.19172431858317251       0.42253005933233251        0.00000000    
   9.5861447711488273E-002  0.42244943735510171        0.00000000    
   0.0000000000000000       0.42217455200382153        0.00000000    
   0.0000000000000000       0.51435959043894375        0.00000000    
  -8.8083266122892856E-002  0.51419123062716021        0.00000000    
 -0.17594349813622912       0.51449310163109141        0.00000000    
 -0.26358884319806475       0.51426817478070730        0.00000000    
 -0.35049793899032405       0.51422627156946321        0.00000000    
 -0.43686374166654995       0.51302341750308844        0.00000000    
 -0.52176525525825035       0.51132012466855359        0.00000000    
 -0.60554825551934932       0.50716363792289676        0.00000000    
 -0.68673052153671343       0.50116983986585550        0.00000000    
 -0.76579605210732826       0.49033577992784716        0.00000000    
 -0.84041343776505051       0.47518252814717010        0.00000000    
 -0.91123211363080636       0.45091309254593276        0.00000000    
 -0.97443896646122996       0.41784186847451033        0.00000000    
  -1.0310027485092688       0.36818588798696850        0.00000000    
  -1.0738212240629335       0.30202947014158388        0.00000000    
  -1.1048716375338656       0.20729493516101072        0.00000000    
  -1.1077213889102351        8.5147178947936580E-002   0.00000000    
  -1.0915705921150252       -7.6800641567903588E-002   0.00000000    
  -1.0186519953300128      -0.28005012509312033        0.00000000    
 -0.91863342434693029      -0.51130915180987502        0.00000000    
 -0.74518236052256259      -0.79675355879198040        0.00000000    
 -0.44946948293471306       -1.0416764222240766        0.00000000    
 -0.25138335547169682       -1.2004777419690631        0.00000000    
 -0.15512090606444282       -1.2743632004655083        0.00000000    
  -7.8136425697173537E-002  -1.3056941092650702        0.00000000    
   6.8534830562008809E-005  -1.3142002050136505        0.00000000    
   7.8273063857888722E-002  -1.3056802106580019        0.00000000    
  0.15525654176133979       -1.2743356467261795        0.00000000    
  0.25151598921255397       -1.2004376838532085        0.00000000    
  0.44959355595081535       -1.0416279538367663        0.00000000    
  0.74529101409044429      -0.79670217777456598        0.00000000    
  0.91872957536166855      -0.51126074895059648        0.00000000    
   1.0187381951833465      -0.28000337171093920        0.00000000    
   1.0916454059978125       -7.6757326850240518E-002   0.00000000    
   1.1077881098272087        8.5187912601911039E-002   0.00000000    
   1.1049287118924593       0.20733292014869711        0.00000000    
   1.0738714182851803       0.30206460276038299        0.00000000    
   1.0310449335940897       0.36821837966633036        0.00000000    
  0.97447561579408637       0.41787123093029827        0.00000000    
  0.91126248441743296       0.45093988236488769        0.00000000    
  0.84043959452220229       0.47520625543945316        0.00000000    
  0.76581747550795931       0.49035726196680146        0.00000000    
  0.68674877108629262       0.50118867699712033        0.00000000    
  0.60556295145908767       0.50718072590937324        0.00000000    
  0.52177749830412201       0.51133514152620030        0.00000000    
  0.43687326123854614       0.51303723111481603        0.00000000    
  0.35050545642294267       0.51423861084780165        0.00000000    
  0.26359418559572079       0.51427984843234109        0.00000000    
  0.17594707218662153       0.51450387110703510        0.00000000    
   8.8084987178006752E-002  0.51420185314838096        0.00000000    
   0.0000000000000000       0.51436984295786492        0.00000000    
   0.0000000000000000       0.59775069470046516        0.00000000    
  -7.9041455813194925E-002  0.59792606001684812        0.00000000    
 -0.15787051957819950       0.59744877933817286        0.00000000    
 -0.23606855396054105       0.59715708760395747        0.00000000    
 -0.31357226647280689       0.59575137691308755        0.00000000    
 -0.38968654492634902       0.59397960268930305        0.00000000    
 -0.46444679391629989       0.59002690930565904        0.00000000    
 -0.53678804942894653       0.58458231561650298        0.00000000    
 -0.60679864416353224       0.57494522618524824        0.00000000    
 -0.67290520404827614       0.56173368643645349        0.00000000    
 -0.73521528613001941       0.54071328697075194        0.00000000    
 -0.79138689256040951       0.51237381255507253        0.00000000    
 -0.84155027998654075       0.46975257839783702        0.00000000    
 -0.88187708313752389       0.41316695176330903        0.00000000    
 -0.91258620190819628       0.33057717914344642        0.00000000    
 -0.92551541221126354       0.22272802710915510        0.00000000    
 -0.92114201330879664        6.8191601182877121E-002   0.00000000    
 -0.87315348999291387      -0.12398322355950529        0.00000000    
 -0.79747123074681858      -0.38146726227944000        0.00000000    
 -0.62212335791641937      -0.68525732811596407        0.00000000    
 -0.36852647812531647       -1.0498522246795934        0.00000000    
 -0.23691084830023085       -1.2159052155418137        0.00000000    
 -0.17204243903524546       -1.2892030901399139        0.00000000    
 -0.11361327869630126       -1.3403293024917255        0.00000000    
  -5.7859606242438986E-002  -1.3724660406717144        0.00000000    
   6.2285980224509381E-005  -1.3835550051399852        0.00000000    
   5.7984109996467380E-002  -1.3724516423577946        0.00000000    
  0.11373713565165053       -1.3403005991968018        0.00000000    
  0.17216554296610329       -1.2891604265991023        0.00000000    
  0.23703187846183255       -1.2158487180848241        0.00000000    
  0.36864098769674775       -1.0497869326907108        0.00000000    
  0.62222252029621872      -0.68519498648145316        0.00000000    
  0.79755572060296942      -0.38140982398761591        0.00000000    
  0.87322835686801092      -0.12392958479792239        0.00000000    
  0.92120541780436993        6.8241566137503137E-002   0.00000000    
  0.92557087057718379       0.22277437348626286        0.00000000    
  0.91263232810841266       0.33062016267420691        0.00000000    
  0.88191686643342271       0.41320594457451315        0.00000000    
  0.84158289055953062       0.46978814819622755        0.00000000    
  0.79141486900701308       0.51240530770598114        0.00000000    
  0.73523807150858123       0.54074171402840110        0.00000000    
  0.67292466669475781       0.56175852480035804        0.00000000    
  0.60681436567242830       0.57496762198020734        0.00000000    
  0.53680131560152877       0.58460185388690145        0.00000000    
  0.46445729377513245       0.59004469508718538        0.00000000    
  0.38969512265078704       0.59399529298664200        0.00000000    
  0.31357870797684428       0.59576597786593843        0.00000000    
  0.23607336828990269       0.59717030179172481        0.00000000    
  0.15787358336621157       0.59746152716709489        0.00000000    
   7.9043008108873131E-002  0.59793806867352228        0.00000000    
   0.0000000000000000       0.59776283443537803        0.00000000    
   0.0000000000000000       0.67215710136318285        0.00000000    
  -6.9122317550196391E-002  0.67168457840700380        0.00000000    
 -0.13785105472246251       0.67124921351212896        0.00000000    
 -0.20591170505161643       0.66961648901593851        0.00000000    
 -0.27273325964024936       0.66761839329619121        0.00000000    
 -0.33809930547384209       0.66359405972403296        0.00000000    
 -0.40120237125924652       0.65827691590518678        0.00000000    
 -0.46181543835519706       0.64928777798146475        0.00000000    
 -0.51883371847155058       0.63726978471829610        0.00000000    
 -0.57193736954381125       0.61862048123820845        0.00000000    
 -0.61965683444728792       0.59385718128884613        0.00000000    
 -0.66147419589202239       0.55722002301823048        0.00000000    
 -0.69543289405005371       0.50902959043319373        0.00000000    
 -0.72063404034971856       0.43941901856430549        0.00000000    
 -0.73411632726297338       0.34851764800353968        0.00000000    
 -0.73386174928923431       0.21746330905643910        0.00000000    
 -0.71238740148570134        4.7609692823700332E-002   0.00000000    
 -0.66107796846283506      -0.20269817151368824        0.00000000    
 -0.54265623037396449      -0.49685520504577474        0.00000000    
 -0.34661677097710775      -0.94125564618638224        0.00000000    
 -0.22314244794302662       -1.1709242089509382        0.00000000    
 -0.18085166059180652       -1.2687394582639620        0.00000000    
 -0.14001047711964254       -1.3420783252361952        0.00000000    
  -9.3308794223693509E-002  -1.3925847969920120        0.00000000    
  -4.5348851117466955E-002  -1.4239240492872896        0.00000000    
   5.6397826327278354E-005  -1.4354240241435716        0.00000000    
   4.5461315658360063E-002  -1.4239092516552501        0.00000000    
   9.3420838349801291E-002  -1.3925554258015995        0.00000000    
  0.14012118630609952       -1.3420342416265731        0.00000000    
  0.18096115739456264       -1.2686810947226714        0.00000000    
  0.22324964873323760       -1.1708519664432455        0.00000000    
  0.34671590868272723      -0.94117684479490282        0.00000000    
  0.54274111699782990      -0.49678530290338313        0.00000000    
  0.66114882368704642      -0.20263334222344714        0.00000000    
  0.71244870570540075        4.7669480635908659E-002   0.00000000    
  0.73391195401486442       0.21751887819843180        0.00000000    
  0.73415901502835612       0.34856825789771284        0.00000000    
  0.72066831569190215       0.43946514033876311        0.00000000    
  0.69546201150462073       0.50907036188116417        0.00000000    
  0.66149758182041241       0.55725668217161040        0.00000000    
  0.61967678393858106       0.59388907185121786        0.00000000    
  0.57195342407019789       0.61864907379413692        0.00000000    
  0.51884737893996002       0.63729456151853148        0.00000000    
  0.46182634864253658       0.64931014076395588        0.00000000    
  0.40121148730204720       0.65829643773433866        0.00000000    
  0.33810637247879011       0.66361198514617692        0.00000000    
  0.27273886421253785       0.66763435777845714        0.00000000    
  0.20591568440853922       0.66963159206469813        0.00000000    
  0.13785372612090097       0.67126313098081936        0.00000000    
   6.9123603209150120E-002  0.67169831465626917        0.00000000    
   0.0000000000000000       0.67217035146086068        0.00000000    
   0.0000000000000000       0.73582748602622017        0.00000000    
  -5.8543532079595492E-002  0.73568113540677205        0.00000000    
 -0.11665139279248542       0.73409034608888113        0.00000000    
 -0.17379739231436658       0.73198309796329508        0.00000000    
 -0.22957611627592303       0.72785315352464586        0.00000000    
 -0.28332429446071933       0.72247461413141201        0.00000000    
 -0.33458955290845499       0.71376577452410173        0.00000000    
 -0.38254368875409483       0.70236721116526479        0.00000000    
 -0.42658241948352016       0.68524844850796984        0.00000000    
 -0.46572213327580547       0.66288626871062750        0.00000000    
 -0.49904885409674471       0.63063866207056696        0.00000000    
 -0.52551677652107243       0.58872490933732546        0.00000000    
 -0.54361720519124701       0.52958490876845477        0.00000000    
 -0.55253348882843412       0.45298220955433099        0.00000000    
 -0.54943351419529962       0.34533784088052694        0.00000000    
 -0.53449183539114065       0.20544793424511951        0.00000000    