 <VTKFile type="UnstructuredGrid" version="0.1" byte_order="BigEndian">
 <UnstructuredGrid>
 <Piece NumberOfPoints="        2601 " NumberOfCells="        2500 ">
 <PointData Scalars="scalars">
 <DataArray type="Float32" NumberOfComponents="3" Name="Velocity" Format="ascii">
   0.0000000000000000        0.0000000000000000        0.00000000    
  -7.6743608353715742E-002   0.0000000000000000        0.00000000    
 -0.15389413639625316        0.0000000000000000        0.00000000    
 -0.23146922162323480        0.0000000000000000        0.00000000    
 -0.31027606794584106        0.0000000000000000        0.00000000    
 -0.38988320569811058        0.0000000000000000        0.00000000    
 -0.47156980065300663        0.0000000000000000        0.00000000    
 -0.55428968531485823        0.0000000000000000        0.00000000    
 -0.63992940434950529        0.0000000000000000        0.00000000    
 -0.72647514668178792        0.0000000000000000        0.00000000    
 -0.81662366196256964        0.0000000000000000        0.00000000    
 -0.90668686755435213        0.0000000000000000        0.00000000    
  -1.0004094660077707        0.0000000000000000        0.00000000    
  -1.0911111456786775        0.0000000000000000        0.00000000    
  -1.1836515147938849        0.0000000000000000        0.00000000    
  -1.2665008407872296        0.0000000000000000        0.00000000    
  -1.3445963818530704        0.0000000000000000        0.00000000    
  -1.3988955079324019        0.0000000000000000        0.00000000    
  -1.4325355426824538        0.0000000000000000        0.00000000    
  -1.4257613033247216        0.0000000000000000        0.00000000    
  -1.3533079692139149        0.0000000000000000        0.00000000    
  -1.2206859547596627        0.0000000000000000        0.00000000    
  -1.0026419260711139        0.0000000000000000        0.00000000    
 -0.73097603271975187        0.0000000000000000        0.00000000    
 -0.38358676927275615        0.0000000000000000        0.00000000    
  -2.0158364868842481E-004   0.0000000000000000        0.00000000    
  0.38224492410652383        0.0000000000000000        0.00000000    
  0.73093802300582178        0.0000000000000000        0.00000000    
   1.0029511471696329        0.0000000000000000        0.00000000    
   1.2200095379004894        0.0000000000000000        0.00000000    
   1.3529624619679357        0.0000000000000000        0.00000000    
   1.4252819279249846        0.0000000000000000        0.00000000    
   1.4322287501066389        0.0000000000000000        0.00000000    
   1.3985751014948464        0.0000000000000000        0.00000000    
   1.3443690910181179        0.0000000000000000        0.00000000    
   1.2662826351193648        0.0000000000000000        0.00000000    
   1.1834885383660121        0.0000000000000000        0.00000000    
   1.0909593456651456        0.0000000000000000        0.00000000    
   1.0002926330458102        0.0000000000000000        0.00000000    
  0.90657959529079712        0.0000000000000000        0.00000000    
  0.81653980404313797        0.0000000000000000        0.00000000    
  0.72639908646421103        0.0000000000000000        0.00000000    
  0.63986982839873752        0.0000000000000000        0.00000000    
  0.55423667387561082        0.0000000000000000        0.00000000    
  0.47152895052616683        0.0000000000000000        0.00000000    
  0.38984823158553927        0.0000000000000000        0.00000000    
  0.31025048374351377        0.0000000000000000        0.00000000    
  0.23144929268336140        0.0000000000000000        0.00000000    
  0.15388180690618436        0.0000000000000000        0.00000000    
   7.6737132104523473E-002   0.0000000000000000        0.00000000    
   0.0000000000000000        0.0000000000000000        0.00000000    
   0.0000000000000000        7.6302158441553858E-002   0.00000000    
  -7.5962911512432632E-002   7.6405897325855912E-002   0.00000000    
 -0.15212329400798050        7.6906548856996715E-002   0.00000000    
 -0.22905688171681149        7.7603659142770356E-002   0.00000000    
 -0.30655836201166686        7.8706201738922538E-002   0.00000000    
 -0.38561808866534703        7.9962195696873253E-002   0.00000000    
 -0.46552168561391716        8.1629527795267706E-002   0.00000000    
 -0.54776789835543849        8.3338099144220176E-002   0.00000000    
 -0.63089174657952818        8.5426995376281831E-002   0.00000000    
 -0.71705565769239321        8.7284182157599935E-002   0.00000000    
 -0.80355054217987132        8.9360738252266605E-002   0.00000000    
 -0.89341343448344057        9.0566875460454180E-002   0.00000000    
 -0.98171810682062921        9.1461905932318982E-002   0.00000000    
  -1.0725697348490817        9.0092904968997495E-002   0.00000000    
  -1.1570699091223675        8.6949133571608772E-002   0.00000000    
  -1.2402182816284304        7.9050048528302302E-002   0.00000000    
  -1.3070655623731851        6.5894244007678252E-002   0.00000000    
  -1.3616503719762094        4.2991144038156265E-002   0.00000000    
  -1.3801967470389416        9.1966972285367227E-003   0.00000000    
  -1.3644179530638372       -3.1748327381612283E-002   0.00000000    
  -1.3005355349319681      -0.10458605720634817        0.00000000    
  -1.1449176921955626      -0.18365246933046092        0.00000000    
 -0.93320719271893804      -0.24610077198786989        0.00000000    
 -0.66042395268864085      -0.29834711395587443        0.00000000    
 -0.35744821344961558      -0.35201667909285400        0.00000000    
  -1.4182476549446819E-003 -0.38739728242810045        0.00000000    
  0.35751589240680343      -0.35398217528635623        0.00000000    
  0.66086463481902635      -0.29805845661201297        0.00000000    
  0.93242561589488637      -0.24551440133598398        0.00000000    
   1.1446316444955202      -0.18374873096487274        0.00000000    
   1.3000039417340006      -0.10457515967138001        0.00000000    
   1.3640999172240698       -3.1838914050727682E-002   0.00000000    
   1.3798348674917986        9.1585447944894007E-003   0.00000000    
   1.3613997325882872        4.2931670205669625E-002   0.00000000    
   1.3068168087399199        6.5858716491008246E-002   0.00000000    
   1.2400348148690796        7.9011204019446252E-002   0.00000000    
   1.1568962942076841        8.6922897000571195E-002   0.00000000    
   1.0724370482180814        9.0067036850660184E-002   0.00000000    
  0.98159508727775513        9.1443139913932506E-002   0.00000000    
  0.89331749593055043        9.0548999795747778E-002   0.00000000    
  0.80346272450019318        8.9347078701639923E-002   0.00000000    
  0.71698664684790692        8.7271237174675831E-002   0.00000000    
  0.63082953395830799        8.5416657870597656E-002   0.00000000    
  0.54771934985584769        8.3328208019209080E-002   0.00000000    
  0.46547909338773719        8.1621301335636665E-002   0.00000000    
  0.38558586739382594        7.9954175189398527E-002   0.00000000    
  0.30653171034269522        7.8699262734638287E-002   0.00000000    
  0.22903845583872226        7.7596717095146178E-002   0.00000000    
  0.15211045604311252        7.6900303542592197E-002   0.00000000    
   7.5956913590256928E-002   7.6399449357875002E-002   0.00000000    
   0.0000000000000000        7.6296132239213332E-002   0.00000000    
   0.0000000000000000       0.15088511311592712        0.00000000    
  -7.3472868582919598E-002  0.15126019705632643        0.00000000    
 -0.14726956104419264       0.15201079808562501        0.00000000    
 -0.22135272493624650       0.15351763507214167        0.00000000    
 -0.29640375805208430       0.15534621181753780        0.00000000    
 -0.37195908249374043       0.15793870837235666        0.00000000    
 -0.44910277965439505       0.16070177915094677        0.00000000    
 -0.52678523486386586       0.16419598412226016        0.00000000    
 -0.60658448742595406       0.16749367680925561        0.00000000    
 -0.68653572644779626       0.17133411415157127        0.00000000    
 -0.76884716548667786       0.17411858886413631        0.00000000    
 -0.84997826472783677       0.17680447201415081        0.00000000    
 -0.93293193008391384       0.17648409627086181        0.00000000    
  -1.0112467232510358       0.17423857984728244        0.00000000    
  -1.0888426993184279       0.16490104314132814        0.00000000    
  -1.1536057935375126       0.14901103172122307        0.00000000    
  -1.2102365172647418       0.11941267595668105        0.00000000    
  -1.2395089555572791        7.3331357137534997E-002   0.00000000    
  -1.2432912215913505        1.1864980833947653E-003   0.00000000    
  -1.1844533721847090       -9.8353422245886071E-002   0.00000000    
  -1.0852552719896758      -0.20106016366324103        0.00000000    
 -0.95567075831789949      -0.37237945561607722        0.00000000    
 -0.69882326356736069      -0.52593055256855914        0.00000000    
 -0.41862945086872344      -0.57149320422143590        0.00000000    
 -0.17872919771118972      -0.62174543906443558        0.00000000    
   8.7775721158660463E-004 -0.65330434759042133        0.00000000    
  0.17796511876747126      -0.62409551779699302        0.00000000    
  0.41695995057530422      -0.57028754655314484        0.00000000    
  0.69827552191102715      -0.52616068123993043        0.00000000    
  0.95520658920938228      -0.37223831975254346        0.00000000    
   1.0849931293181974      -0.20124314438355856        0.00000000    
   1.1841296856937606       -9.8402144235756009E-002   0.00000000    
   1.2430596564602534        1.0582033878272566E-003   0.00000000    
   1.2392672895646888        7.3260886258448246E-002   0.00000000    
   1.2100554117509026       0.11932569928529808        0.00000000    
   1.1534287991013479       0.14895423841187733        0.00000000    
   1.0887062207376437       0.16484238768766754        0.00000000    
   1.0111175376667794       0.17419690932991083        0.00000000    
  0.93283054757938988       0.17644366249357199        0.00000000    
  0.84988396677588651       0.17677409856518880        0.00000000    
  0.76877253041664662       0.17408964334892219        0.00000000    
  0.68646737122470103       0.17131136845092876        0.00000000    
  0.60653052138097197       0.16747195262413139        0.00000000    
  0.52673687580978368       0.16417820856425827        0.00000000    
  0.44906533146753846       0.16068456998662359        0.00000000    
  0.37192686233885019       0.15792407158327779        0.00000000    
  0.29638012351328158       0.15533173387834515        0.00000000    
  0.22133425518769911       0.15350484137884837        0.00000000    
  0.14725812210916067       0.15199778569170544        0.00000000    
   7.3466849390498967E-002  0.15124825638337597        0.00000000    
   0.0000000000000000       0.15087256250509695        0.00000000    
   0.0000000000000000       0.22246915093750255        0.00000000    
  -6.9564414208805728E-002  0.22271485496106513        0.00000000    
 -0.13919757702662408       0.22398740821732602        0.00000000    
 -0.20928099114530338       0.22570901506048116        0.00000000    
 -0.27952842683015933       0.22845471219200317        0.00000000    
 -0.35063345530937740       0.23149197110483150        0.00000000    
 -0.42184951213798705       0.23550967962776895        0.00000000    
 -0.49421182051939727       0.23943425417204181        0.00000000    
 -0.56630065513149974       0.24414489939409986        0.00000000    
 -0.63954444240628028       0.24787931980212108        0.00000000    
 -0.71143464458982653       0.25177642424115754        0.00000000    
 -0.78385571381489594       0.25270019957640832        0.00000000    
 -0.85236107386890758       0.25204878555312993        0.00000000    
 -0.91935722766407746       0.24398622083082555        0.00000000    
 -0.97648242040825128       0.22987594986564847        0.00000000    
  -1.0268319815444911       0.19915014667555478        0.00000000    
  -1.0526950904867982       0.15176875304805706        0.00000000    
  -1.0584193688171313        7.5973337061476812E-002   0.00000000    
  -1.0176470618541396       -3.8444195713655288E-002   0.00000000    
 -0.93093212471627618      -0.20427421949929017        0.00000000    
 -0.72185397646589977      -0.40341434353036199        0.00000000    
 -0.42455642916278485      -0.59690609802856465        0.00000000    
 -0.26827525540134517      -0.71453144983180328        0.00000000    
 -0.17666064929019287      -0.75469963311159327        0.00000000    
  -8.6894316298451860E-002 -0.76820482633456977        0.00000000    
   3.4793603481334657E-004 -0.77369373071532987        0.00000000    
   8.7250851576022984E-002 -0.76769599653803322        0.00000000    
  0.17654020760129646      -0.75497048372838471        0.00000000    
  0.26822275670237583      -0.71447477219472955        0.00000000    
  0.42446557322402795      -0.59709698343385564        0.00000000    
  0.72170728058055655      -0.40341148960619772        0.00000000    
  0.93078139489037248      -0.20444319824826365        0.00000000    
   1.0174800882558275       -3.8528111282119422E-002   0.00000000    
   1.0582775464486367        7.5843436741178757E-002   0.00000000    
   1.0525478007843330       0.15168611265459739        0.00000000    
   1.0267121253630851       0.19905747251729813        0.00000000    
  0.97636430361507220       0.22981092000847320        0.00000000    
  0.91926188533414621       0.24392085727306675        0.00000000    
  0.85226975618098255       0.25200021708977904        0.00000000    
  0.78378209626334738       0.25265317613442256        0.00000000    
  0.71136560292762874       0.25173988994502183        0.00000000    
  0.63948904523164973       0.24784423855439358        0.00000000    
  0.56624982920060962       0.24411655033269705        0.00000000    
  0.49417163920857277       0.23940685188379401        0.00000000    
  0.42181381942097024       0.23548669773191833        0.00000000    
  0.35060624511601796       0.23146939649475184        0.00000000    
  0.27950572920666944       0.22843507388770010        0.00000000    
  0.20926523976175954       0.22568927070425135        0.00000000    
  0.13918654535203992       0.22396959596422747        0.00000000    
   6.9559257172073979E-002  0.22269641976827656        0.00000000    
   0.0000000000000000       0.22245191861823058        0.00000000    
   0.0000000000000000       0.28920116136021318        0.00000000    
  -6.4249896448888899E-002  0.28979850707034044        0.00000000    
 -0.12860546583813320       0.29089383986740813        0.00000000    
 -0.19288870079239592       0.29317058377183736        0.00000000    
 -0.25745080332160430       0.29580403198007443        0.00000000    
 -0.32175551956118659       0.29955374577963290        0.00000000    
 -0.38638000128302702       0.30328979144308793        0.00000000    
 -0.45029211486817800       0.30792991141785375        0.00000000    
 -0.51427726984370514       0.31172457599236519        0.00000000    
 -0.57655799606491898       0.31582549977205709        0.00000000    
 -0.63809122129680129       0.31725501048096971        0.00000000    
 -0.69588473283398711       0.31743753133414326        0.00000000    
 -0.75098842639015562       0.31092183822500002        0.00000000    
 -0.79817602385790898       0.29929824828224294        0.00000000    
 -0.83849732371580454       0.27201173410465190        0.00000000    
 -0.86144975039302019       0.23031766691608871        0.00000000    
 -0.86853583182930882       0.15355172461381014        0.00000000    
 -0.82948060871140039        4.0860718356441596E-002   0.00000000    
 -0.75047954559148955      -0.12310367047680264        0.00000000    
 -0.56742924826429442      -0.38937871515138817        0.00000000    
 -0.34542675000574341      -0.64938927888888220        0.00000000    
 -0.25542689176321109      -0.73822767982249493        0.00000000    
 -0.19460345630547807      -0.79031424805577577        0.00000000    
 -0.13631518919958360      -0.82881957958151387        0.00000000    
  -7.1789249455392654E-002 -0.84837702200341869        0.00000000    
  -9.9475173010921581E-005 -0.85245343329798851        0.00000000    
   7.1967471567717642E-002 -0.84790602814793736        0.00000000    
  0.13664694212075537      -0.82872914826947741        0.00000000    
  0.19466233782147430      -0.79041392383812703        0.00000000    
  0.25549834866675819      -0.73823643000560335        0.00000000    
  0.34545869776677679      -0.64947321095398391        0.00000000    
  0.56742757389642995      -0.38942325193174565        0.00000000    
  0.75042190999269487      -0.12323982293533937        0.00000000    
  0.82940795308512572        4.0772923683464468E-002   0.00000000    
  0.86845916816248825       0.15343645398690350        0.00000000    
  0.86136716632174892       0.23023610985506551        0.00000000    
  0.83842401875652206       0.27192456867262205        0.00000000    
  0.79810150773207300       0.29923345699203807        0.00000000    
  0.75092539548694004       0.31085718764351117        0.00000000    
  0.69582309081266136       0.31738750098584595        0.00000000    
  0.63804023565902257       0.31720625082745929        0.00000000    
  0.57650963239173414       0.31578637742580640        0.00000000    
  0.51423804920219451       0.31168655376033133        0.00000000    
  0.45025609615430262       0.30789833575031422        0.00000000    
  0.38635165672841354       0.30325882017778744        0.00000000    
  0.32173071764451772       0.29952713537623488        0.00000000    
  0.25743245099065226       0.29577746731647914        0.00000000    
  0.19287420059219001       0.29314696740387053        0.00000000    
  0.12859645706704920       0.29086968848992611        0.00000000    
   6.4245127096803772E-002  0.28977629694548196        0.00000000    
   0.0000000000000000       0.28917777758532975        0.00000000    
   0.0000000000000000       0.35046851776269450        0.00000000    
  -5.7902856214252355E-002  0.35068519427515860        0.00000000    
 -0.11566729764192929       0.35212845434058049        0.00000000    
 -0.17335728796607117       0.35391048479819365        0.00000000    
 -0.23056799893731580       0.35683823442762735        0.00000000    
 -0.28751280829495196       0.35977035755425263        0.00000000    
 -0.34342614019290535       0.36361228150895042        0.00000000    
 -0.39860804519416698       0.36670272595034065        0.00000000    
 -0.45178435365919084       0.37011451037755178        0.00000000    
 -0.50324068797684496       0.37117390806509709        0.00000000    
 -0.55095745650182848       0.37115787749092238        0.00000000    
 -0.59502454971566177       0.36539654570130836        0.00000000    
 -0.63226946414696472       0.35531270800076548        0.00000000    
 -0.66227256789103062       0.33209934859332857        0.00000000    
 -0.67977109790903667       0.29703173262473509        0.00000000    
 -0.68336378496272399       0.23184403997843342        0.00000000    
 -0.66150330501184329       0.13725221247346689        0.00000000    
 -0.61277150212551246       -3.0625554363992454E-002   0.00000000    
 -0.47855944942091172      -0.26482926885628416        0.00000000    
 -0.31031999242041031      -0.59894164167068054        0.00000000    
 -0.24839167203834978      -0.72375665579178949        0.00000000    
 -0.20936066494834013      -0.79289101894354153        0.00000000    
 -0.16029762357428698      -0.84553726297633869        0.00000000    
 -0.10720684727122110      -0.88497548695192141        0.00000000    
  -5.4257276919547848E-002 -0.90969650191719398        0.00000000    
   2.6812845184184395E-005 -0.91710769432636741        0.00000000    
   5.4291125459827477E-002 -0.90958290333946645        0.00000000    
  0.10735013419863806      -0.88479062961028343        0.00000000    
  0.16049513676796426      -0.84551271970280750        0.00000000    
  0.20945182248441255      -0.79293020787378288        0.00000000    
  0.24848140087497375      -0.72376921128495220        0.00000000    
  0.31037933535675472      -0.59899354695375961        0.00000000    
  0.47859902289450967      -0.26488232218409913        0.00000000    
  0.61276177900861228       -3.0732131502735505E-002   0.00000000    
  0.66148231007120328       0.13717100414369068        0.00000000    
  0.68332993851213253       0.23174719256317503        0.00000000    
  0.67972976290880838       0.29695806696641536        0.00000000    
  0.66223158180787822       0.33202191979715834        0.00000000    
  0.63222538013473328       0.35525230762097659        0.00000000    
  0.59498534049893403       0.36533600148607798        0.00000000    
  0.55091795212697936       0.37110927047229686        0.00000000    
  0.50320721982927774       0.37112597490041160        0.00000000    
  0.45175216769437454       0.37007487374538478        0.00000000    
  0.39858178561379187       0.36666363637663879        0.00000000    
  0.34340206397764506       0.36357896662294265        0.00000000    
  0.28749412721407924       0.35973715300322512        0.00000000    
  0.23055208497074173       0.35680904721036888        0.00000000    
  0.17334615427905392       0.35388085857624724        0.00000000    
  0.11565939852230880       0.35210158682028009        0.00000000    
   5.7899161156847893E-002  0.35065725681348769        0.00000000    
   0.0000000000000000       0.35044239691577328        0.00000000    
   0.0000000000000000       0.40457757470617506        0.00000000    
  -5.0667085199817483E-002  0.40514730907158780        0.00000000    
 -0.10116551643183852       0.40593044222805696        0.00000000    
 -0.15115147159252390       0.40778567235119417        0.00000000    
 -0.20056097600561187       0.40958449128158980        0.00000000    
 -0.24880034053652500       0.41220950349444602        0.00000000    
 -0.29582514846095270       0.41411250264329297        0.00000000    
 -0.34070056051689834       0.41626104901171057        0.00000000    
 -0.38327340609857402       0.41630656596235610        0.00000000    
 -0.42215668530512207       0.41532269060770294        0.00000000    
 -0.45687135408384894       0.40944175315922049        0.00000000    
 -0.48546863803732887       0.39977826847412651        0.00000000    
 -0.50676189748914835       0.37947037509452358        0.00000000    
 -0.51822032868709644       0.34940443369396146        0.00000000    
 -0.51724762275266911       0.29625368121657930        0.00000000    
 -0.50101172621843149       0.21998009494828483        0.00000000    
 -0.46374052207183925        8.9985674687300329E-002   0.00000000    
 -0.40132695547496094       -9.4503175671281206E-002   0.00000000    
 -0.29403636369928110      -0.44245310677899974        0.00000000    
 -0.22382021887842640      -0.65977242954852555        0.00000000    
 -0.19379306452211631      -0.75488120100947864        0.00000000    
 -0.16113486996851795      -0.83345555669764981        0.00000000    
 -0.12362093088778855      -0.89154958848215249        0.00000000    
  -8.3074748754622341E-002 -0.93260000265092680        0.00000000    
  -4.1230052571611067E-002 -0.95686613612377958        0.00000000    
   1.3455882052811200E-005 -0.96546554121015515        0.00000000    
   4.1307252723633281E-002 -0.95678304880769527        0.00000000    
   8.3183537283949532E-002 -0.93252566081880051        0.00000000    
  0.12374426576690274      -0.89148330231940709        0.00000000    
  0.16127240736435339      -0.83344433539734397        0.00000000    
  0.19388776966224611      -0.75489990576121191        0.00000000    
  0.22391238296170277      -0.65978525862396997        0.00000000    
  0.29409998031208057      -0.44249691934618801        0.00000000    
  0.40138029164403893       -9.4559416581638731E-002   0.00000000    
  0.46375786630372495        8.9901393920591252E-002   0.00000000    
  0.50101741230746200       0.21991082959630917        0.00000000    
  0.51723919534458573       0.29617403556322697        0.00000000    
  0.51820408734341328       0.34934044989532359        0.00000000    
  0.50674219399542164       0.37940308981125931        0.00000000    
  0.48544509056899621       0.39972357833138894        0.00000000    
  0.45684905024112094       0.40938634361107551        0.00000000    
  0.42213318861420501       0.41527671658696058        0.00000000    
  0.38325302020640251       0.41626057721211945        0.00000000    
  0.34068060627465818       0.41622195351757713        0.00000000    
  0.29580886872441980       0.41407333581206074        0.00000000    
  0.24878550002620642       0.41217531652558553        0.00000000    
  0.20054979631345674       0.40954985855321341        0.00000000    
  0.15114240601411766       0.40775459724590968        0.00000000    
  0.10115985393925873       0.40589838594006100        0.00000000    
   5.0664042973441764E-002  0.40511773604916573        0.00000000    
   0.0000000000000000       0.40454635213727436        0.00000000    
   0.0000000000000000       0.45166702317993546        0.00000000    
  -4.2916602023924159E-002  0.45164271756556312        0.00000000    
  -8.5485873804988469E-002  0.45250390650130456        0.00000000    
 -0.12744004866739198       0.45315350728858977        0.00000000    
 -0.16828030116198525       0.45446758248581176        0.00000000    
 -0.20772890707305605       0.45501555078909656        0.00000000    
 -0.24507144790232074       0.45567497229668047        0.00000000    
 -0.27989132751667889       0.45439503734346587        0.00000000    
 -0.31120939317198248       0.45206465552944591        0.00000000    
 -0.33826480172788909       0.44550445273483114        0.00000000    
 -0.35982693627622969       0.43553795908687692        0.00000000    
 -0.37444627075869918       0.41689984191397156        0.00000000    
 -0.38088865598947369       0.39008560900318390        0.00000000    
 -0.37641147139831072       0.34577160389321793        0.00000000    
 -0.36091320127591670       0.28341669619337390        0.00000000    
 -0.32910555787461487       0.18477469424385232        0.00000000    
 -0.28731616995281495        4.6131645867593885E-002   0.00000000    
 -0.22217599950603156      -0.17820173197349840        0.00000000    
 -0.17588168550981417      -0.51233828139510429        0.00000000    
 -0.15541871635531179      -0.68056605111466328        0.00000000    
 -0.13866624844507242      -0.78086708783143322        0.00000000    
 -0.11510192587773378      -0.86369207493349143        0.00000000    
  -8.7801820946138906E-002 -0.92612700227947509        0.00000000    
  -5.8506643159553964E-002 -0.96786383769551765        0.00000000    
  -2.9404643982910220E-002 -0.99254888509421180        0.00000000    
   3.4868778456375315E-005  -1.0004657022391650        0.00000000    
   2.9472574304511091E-002 -0.99251427892600896        0.00000000    
   5.8602634333555031E-002 -0.96780066395308018        0.00000000    
   8.7918007003003826E-002 -0.92608428926834041        0.00000000    
  0.11521174457858814      -0.86366511563794823        0.00000000    
  0.13877884529449730      -0.78086147648030568        0.00000000    
  0.15550958115681801      -0.68057892317949709        0.00000000    
  0.17597303569285899      -0.51235398889678008        0.00000000    
  0.22224002734877207      -0.17824847514103578        0.00000000    
  0.28737141132568661        4.6082645731736073E-002   0.00000000    
  0.32913455064897634       0.18470805502469775        0.00000000    
  0.36093158014830479       0.28335915178494375        0.00000000    
  0.37641721231438391       0.34570597075850196        0.00000000    
  0.38088727463208433       0.39003055746564946        0.00000000    
  0.37444016864893953       0.41684148276486049        0.00000000    
  0.35981696761864801       0.43548884145818367        0.00000000    
  0.33825418177417416       0.44545403094791941        0.00000000    
  0.31119718834093901       0.45202158861793135        0.00000000    
  0.27988040669302638       0.45435130435970300        0.00000000    
  0.24506043159881291       0.45563686392537589        0.00000000    
  0.20771998672564226       0.45497677018247173        0.00000000    
  0.16827225443877478       0.45443300895063149        0.00000000    
  0.12743432562898130       0.45311793519447952        0.00000000    
   8.5481672401793621E-002  0.45247142248024685        0.00000000    
   4.2914639765253448E-002  0.45160871286707127        0.00000000    
   0.0000000000000000       0.45163522780243792        0.00000000    
   0.0000000000000000       0.49040667631045598        0.00000000    
  -3.4867189493320280E-002  0.49068796539237713        0.00000000    
  -6.9326159907803941E-002  0.49048801005587789        0.00000000    
 -0.10290881155760244       0.49070733954118917        0.00000000    
 -0.13518735272598373       0.49003365241372654        0.00000000    
 -0.16557864406052095       0.48929048688630811        0.00000000    
 -0.19352157092251571       0.48668661132595759        0.00000000    
 -0.21829490012102906       0.48297771508081222        0.00000000    
 -0.23903296334632829       0.47553921264519966        0.00000000    
 -0.25493059472417318       0.46498404250482606        0.00000000    
 -0.26455096536725115       0.44724197875618771        0.00000000    
 -0.26728307097766640       0.42254836841940552        0.00000000    
 -0.26069762853058237       0.38429512786911335        0.00000000    
 -0.24536501237428715       0.33175339033543494        0.00000000    
 -0.21718227591381245       0.25375500499278880        0.00000000    
 -0.18157788897479704       0.14702546368538516        0.00000000    