 <VTKFile type="UnstructuredGrid" version="0.1" byte_order="BigEndian">
 <UnstructuredGrid>
 <Piece NumberOfPoints="        2601 " NumberOfCells="        2500 ">
 <PointData Scalars="scalars">
 <DataArray type="Float32" NumberOfComponents="3" Name="Velocity" Format="ascii">
   0.0000000000000000        0.0000000000000000        0.00000000    
  -2.2969118130296239E-002   0.0000000000000000        0.00000000    
  -4.5593109729073641E-002   0.0000000000000000        0.00000000    
  -6.7541572414568929E-002   0.0000000000000000        0.00000000    
  -8.8471550431823379E-002   0.0000000000000000        0.00000000    
 -0.10808389080558919        0.0000000000000000        0.00000000    
 -0.12605511641579675        0.0000000000000000        0.00000000    
 -0.14213342932649450        0.0000000000000000        0.00000000    
 -0.15603245579048372        0.0000000000000000        0.00000000    
 -0.16756308646777671        0.0000000000000000        0.00000000    
 -0.17649354911643222        0.0000000000000000        0.00000000    
 -0.18271119288985987        0.0000000000000000        0.00000000    
 -0.18605529304475463        0.0000000000000000        0.00000000    
 -0.18650061184708128        0.0000000000000000        0.00000000    
 -0.18397144599584930        0.0000000000000000        0.00000000    
 -0.17853653001185124        0.0000000000000000        0.00000000    
 -0.17021491075485473        0.0000000000000000        0.00000000    
 -0.15916983016863107        0.0000000000000000        0.00000000    
 -0.14551874359712957        0.0000000000000000        0.00000000    
 -0.12951263321406187        0.0000000000000000        0.00000000    
 -0.11136347490104768        0.0000000000000000        0.00000000    
  -9.1395404589442855E-002   0.0000000000000000        0.00000000    
  -6.9902789732543796E-002   0.0000000000000000        0.00000000    
  -4.7261067388726492E-002   0.0000000000000000        0.00000000    
  -2.3827023951193908E-002   0.0000000000000000        0.00000000    
   4.4750375372765964E-009   0.0000000000000000        0.00000000    
   2.3827032835454991E-002   0.0000000000000000        0.00000000    
   4.7261076248038436E-002   0.0000000000000000        0.00000000    
   6.9902798493397339E-002   0.0000000000000000        0.00000000    
   9.1395413245758866E-002   0.0000000000000000        0.00000000    
  0.11136348338690960        0.0000000000000000        0.00000000    
  0.12951264170970636        0.0000000000000000        0.00000000    
  0.14551875204544690        0.0000000000000000        0.00000000    
  0.15916983853067454        0.0000000000000000        0.00000000    
  0.17021491895816784        0.0000000000000000        0.00000000    
  0.17853653801001321        0.0000000000000000        0.00000000    
  0.18397145384066285        0.0000000000000000        0.00000000    
  0.18650061931478287        0.0000000000000000        0.00000000    
  0.18605530016843341        0.0000000000000000        0.00000000    
  0.18271119975368022        0.0000000000000000        0.00000000    
  0.17649355552916474        0.0000000000000000        0.00000000    
  0.16756309235914654        0.0000000000000000        0.00000000    
  0.15603246118295308        0.0000000000000000        0.00000000    
  0.14213343412067511        0.0000000000000000        0.00000000    
  0.12605512062417598        0.0000000000000000        0.00000000    
  0.10808389438974743        0.0000000000000000        0.00000000    
   8.8471553346113160E-002   0.0000000000000000        0.00000000    
   6.7541574697257717E-002   0.0000000000000000        0.00000000    
   4.5593111286214238E-002   0.0000000000000000        0.00000000    
   2.2969118929482699E-002   0.0000000000000000        0.00000000    
   0.0000000000000000        0.0000000000000000        0.00000000    
   0.0000000000000000        2.3098629718173957E-002   0.00000000    
  -2.3056006604391759E-002   2.2927954028349226E-002   0.00000000    
  -4.5771246637276768E-002   2.2412736581411370E-002   0.00000000    
  -6.7798568260870967E-002   2.1564506640411017E-002   0.00000000    
  -8.8820249002534546E-002   2.0388610931911105E-002   0.00000000    
 -0.10849980612126374        1.8904745246947102E-002   0.00000000    
 -0.12655887355130810        1.7127006320332077E-002   0.00000000    
 -0.14268911453997477        1.5083005924590344E-002   0.00000000    
 -0.15666732654529592        1.2795690680026294E-002   0.00000000    
 -0.16823099103913067        1.0300062401036196E-002   0.00000000    
 -0.17722681939813828        7.6276862676414627E-003   0.00000000    
 -0.18345531678162505        4.8199122943692009E-003   0.00000000    
 -0.18684577167246794        1.9160998837445037E-003   0.00000000    
 -0.18727726866525601       -1.0378272271734570E-003   0.00000000    
 -0.18477078795340399       -3.9963627542263748E-003   0.00000000    
 -0.17929625680619543       -6.9116280643238557E-003   0.00000000    
 -0.17097023116584278       -9.7345607895154961E-003   0.00000000    
 -0.15986057251930150       -1.2418722649658018E-002   0.00000000    
 -0.14617651740524901       -1.4914963483345541E-002   0.00000000    
 -0.13008403233420010       -1.7182176632643077E-002   0.00000000    
 -0.11187437638670780       -1.9175182486622651E-002   0.00000000    
  -9.1803695228227469E-002  -2.0862114006790791E-002   0.00000000    
  -7.0226817585261711E-002  -2.2205923655752278E-002   0.00000000    
  -4.7473841235937828E-002  -2.3187320303576432E-002   0.00000000    
  -2.3938060358825789E-002  -2.3781049349447424E-002   0.00000000    
   4.4336757374565457E-009  -2.3982589242983604E-002   0.00000000    
   2.3938069252789174E-002  -2.3781049310245307E-002   0.00000000    
   4.7473850044919164E-002  -2.3187320232847190E-002   0.00000000    
   7.0226826316264951E-002  -2.2205923550044977E-002   0.00000000    
   9.1803703825421856E-002  -2.0862113874151888E-002   0.00000000    
  0.11187438490025343       -1.9175182365158441E-002   0.00000000    
  0.13008404071103336       -1.7182176627177352E-002   0.00000000    
  0.14617652579507545       -1.4914963454477206E-002   0.00000000    
  0.15986058085106902       -1.2418722534193301E-002   0.00000000    
  0.17097023938686803       -9.7345606355073947E-003   0.00000000    
  0.17929626488356831       -6.9116278695283886E-003   0.00000000    
  0.18477079569004570       -3.9963624549419945E-003   0.00000000    
  0.18727727612225903       -1.0378268697070036E-003   0.00000000    
  0.18684577877460312        1.9161002251689545E-003   0.00000000    
  0.18345532342278617        4.8199126737775086E-003   0.00000000    
  0.17722682567490741        7.6276867037131475E-003   0.00000000    
  0.16823099686303628        1.0300062939191062E-002   0.00000000    
  0.15666733181564277        1.2795691194330792E-002   0.00000000    
  0.14268911929777986        1.5083006521116625E-002   0.00000000    
  0.12655887769321092        1.7127006925509756E-002   0.00000000    
  0.10849980965077746        1.8904745878379672E-002   0.00000000    
   8.8820251959514512E-002   2.0388611542881081E-002   0.00000000    
   6.7798570542259115E-002   2.1564507336634245E-002   0.00000000    
   4.5771248190723667E-002   2.2412737338677814E-002   0.00000000    
   2.3056007382677598E-002   2.2927954804198212E-002   0.00000000    
   0.0000000000000000        2.3098630519797533E-002   0.00000000    
   0.0000000000000000        4.6376645566839729E-002   0.00000000    
  -2.3321725803554127E-002   4.6029067758988663E-002   0.00000000    
  -4.6294596970900985E-002   4.5001131189804408E-002   0.00000000    
  -6.8584618966633565E-002   4.3294852720562556E-002   0.00000000    
  -8.9844772078956525E-002   4.0941495679127221E-002   0.00000000    
 -0.10977229113820158        3.7960333515760128E-002   0.00000000    
 -0.12803915515736711        3.4398746185121939E-002   0.00000000    
 -0.14438991078544922        3.0293659167434362E-002   0.00000000    
 -0.15853316459864511        2.5707899543957528E-002   0.00000000    
 -0.17027628121161095        2.0696030691505413E-002   0.00000000    
 -0.17938221292172679        1.5334873854207754E-002   0.00000000    
 -0.18573529626348970        9.6957009672325265E-003   0.00000000    
 -0.18916973365891668        3.8665987689859029E-003   0.00000000    
 -0.18965834224962780       -2.0668255473914585E-003   0.00000000    
 -0.18712120454144662       -8.0095881413586416E-003   0.00000000    
 -0.18162679177829247       -1.3865952163702353E-002   0.00000000    
 -0.17319154268688314       -1.9540117256397822E-002   0.00000000    
 -0.16198063653645189       -2.4932337083056252E-002   0.00000000    
 -0.14811120113678533       -2.9953445898109780E-002   0.00000000    
 -0.13183860996267663       -3.4507377028492971E-002   0.00000000    
 -0.11337721723571433       -3.8519637519311201E-002   0.00000000    
  -9.3057862008155204E-002  -4.1906302291769483E-002   0.00000000    
  -7.1180023266083609E-002  -4.4615058820849790E-002   0.00000000    
  -4.8127573339219021E-002  -4.6582218591484530E-002   0.00000000    
  -2.4264711470891903E-002  -4.7783401052880099E-002   0.00000000    
   4.3808370621332290E-009  -4.8181625467842507E-002   0.00000000    
   2.4264720199597769E-002  -4.7783401007321646E-002   0.00000000    
   4.8127582065136038E-002  -4.6582218439340545E-002   0.00000000    
   7.1180031886053083E-002  -4.4615058612631583E-002   0.00000000    
   9.3057870595324929E-002  -4.1906302095033099E-002   0.00000000    
  0.11337722576396599       -3.8519637319377464E-002   0.00000000    
  0.13183861839546243       -3.4507376869318415E-002   0.00000000    
  0.14811120932558980       -2.9953445791962099E-002   0.00000000    
  0.16198064463757161       -2.4932336899126946E-002   0.00000000    
  0.17319155072256523       -1.9540116994674204E-002   0.00000000    
  0.18162679957941691       -1.3865951698412236E-002   0.00000000    
  0.18712121212005473       -8.0095875493211514E-003   0.00000000    
  0.18965834956342068       -2.0668249382238611E-003   0.00000000    
  0.18916974062984074        3.8665995564461670E-003   0.00000000    
  0.18573530282461059        9.6957017713824711E-003   0.00000000    
  0.17938221893889705        1.5334874773880590E-002   0.00000000    
  0.17027628679482068        2.0696031632883506E-002   0.00000000    
  0.15853316973232767        2.5707900658124984E-002   0.00000000    
  0.14438991531874693        3.0293660277024639E-002   0.00000000    
  0.12803915919027054        3.4398747393532512E-002   0.00000000    
  0.10977229465199682        3.7960334675457216E-002   0.00000000    
   8.9844774997150947E-002   4.0941496929967583E-002   0.00000000    
   6.8584621231492796E-002   4.3294854105842856E-002   0.00000000    
   4.6294598516540837E-002   4.5001132705174619E-002   0.00000000    
   2.3321726580291392E-002   4.6029069320797776E-002   0.00000000    
   0.0000000000000000        4.6376647137526504E-002   0.00000000    
   0.0000000000000000        7.0002262649120198E-002   0.00000000    
  -2.3760123194778091E-002   6.9486635041198716E-002   0.00000000    
  -4.7172297247765671E-002   6.7929944457274419E-002   0.00000000    
  -6.9881714776698259E-002   6.5366814242233798E-002   0.00000000    
  -9.1563544515491008E-002   6.1812852164594770E-002   0.00000000    
 -0.11187278643250173        5.7327073036500767E-002   0.00000000    
 -0.13052382472702301        5.1951243833833267E-002   0.00000000    
 -0.14719876437885851        4.5768191474338721E-002   0.00000000    
 -0.16166714098462176        3.8846332101454502E-002   0.00000000    
 -0.17365603537966262        3.1290943363857147E-002   0.00000000    
 -0.18300544423827034        2.3196635699215831E-002   0.00000000    
 -0.18950530555789344        1.4688217478385623E-002   0.00000000    
 -0.19307970867561375        5.8842561656729936E-003   0.00000000    
 -0.19359814635437630       -3.0761035485936260E-003   0.00000000    
 -0.19107914150249458       -1.2055119882875319E-002   0.00000000    
 -0.18548546601780028       -2.0907176119426364E-002   0.00000000    
 -0.17693516700215600       -2.9483109154857613E-002   0.00000000    
 -0.16549288605181642       -3.7641200280218258E-002   0.00000000    
 -0.15137414095320786       -4.5231431461385259E-002   0.00000000    
 -0.13474679170431458       -5.2128000362860999E-002   0.00000000    
 -0.11591332059509342       -5.8192546714581912E-002   0.00000000    
  -9.5137386571840732E-002  -6.3327351203804255E-002   0.00000000    
  -7.2789256606356462E-002  -6.7418647627988854E-002   0.00000000    
  -4.9211768911501579E-002  -7.0407236520211136E-002   0.00000000    
  -2.4816291221914980E-002  -7.2215391876660581E-002   0.00000000    
   4.2518113690735086E-009  -7.2829315199091457E-002   0.00000000    
   2.4816299709300764E-002  -7.2215391781896870E-002   0.00000000    
   4.9211777322134338E-002  -7.0407236337730383E-002   0.00000000    
   7.2789265059735264E-002  -6.7418647386905797E-002   0.00000000    
   9.5137394991540766E-002  -6.3327350973454433E-002   0.00000000    
  0.11591332900084937       -5.8192546475399218E-002   0.00000000    
  0.13474680000224185       -5.2128000039640798E-002   0.00000000    
  0.15137414910129446       -4.5231431125461109E-002   0.00000000    
  0.16549289395602065       -3.7641199994498026E-002   0.00000000    
  0.17693517469272860       -2.9483108715855518E-002   0.00000000    
  0.18548547362132201       -2.0907175509805930E-002   0.00000000    
  0.19107914897639763       -1.2055119083032830E-002   0.00000000    
  0.19359815349949694       -3.0761025536331613E-003   0.00000000    
  0.19307971543062746        5.8842573003164257E-003   0.00000000    
  0.18950531190115846        1.4688218756904455E-002   0.00000000    
  0.18300545017525216        2.3196637094753888E-002   0.00000000    
  0.17365604078118602        3.1290944798789272E-002   0.00000000    
  0.16166714587099035        3.8846333686750147E-002   0.00000000    
  0.14719876888109396        4.5768193097319020E-002   0.00000000    
  0.13052382874198865        5.1951245516518266E-002   0.00000000    
  0.11187278987349290        5.7327074815006200E-002   0.00000000    
   9.1563547359985592E-002   6.1812853988724423E-002   0.00000000    
   6.9881716993142981E-002   6.5366816335610409E-002   0.00000000    
   4.7172298727122267E-002   6.7929946720856046E-002   0.00000000    
   2.3760123936930496E-002   6.9486637360903408E-002   0.00000000    
   0.0000000000000000        7.0002264980801282E-002   0.00000000    
   0.0000000000000000        9.4163973283130364E-002   0.00000000    
  -2.4375206437953267E-002   9.3461527633774508E-002   0.00000000    
  -4.8390742258577993E-002   9.1384035298929620E-002   0.00000000    
  -7.1702164689447512E-002   8.7934836843331504E-002   0.00000000    
  -9.3950591800422867E-002   8.3176359798368987E-002   0.00000000    
 -0.11482263887526740        7.7146127628450967E-002   0.00000000    
 -0.13397686541389417        6.9938727151962865E-002   0.00000000    
 -0.15114690517214963        6.1626960426551344E-002   0.00000000    
 -0.16602633460648106        5.2336641842546355E-002   0.00000000    
 -0.17841180613825952        4.2176271932616985E-002   0.00000000    
 -0.18805025356684998        3.1300435555642311E-002   0.00000000    
 -0.19481667678585174        1.9851973990316782E-002   0.00000000    
 -0.19852965302076656        8.0091505677431177E-003   0.00000000    
 -0.19915576958679726       -4.0551724725359341E-003   0.00000000    
 -0.19660190957156426       -1.6147644867886630E-002   0.00000000    
 -0.19093537784201645       -2.8073587717991733E-002   0.00000000    
 -0.18216419353604507       -3.9636910511821957E-002   0.00000000    
 -0.17045911597218624       -5.0633487377182151E-002   0.00000000    
 -0.15593580007811245       -6.0879935533651744E-002   0.00000000    
 -0.13886280514762875       -7.0178570910126081E-002   0.00000000    
 -0.11946136126045606       -7.8375621797201936E-002   0.00000000    
  -9.8082707139827072E-002  -8.5297595101648208E-002   0.00000000    
  -7.5041705119765198E-002  -9.0836266689051412E-002   0.00000000    
  -5.0748051833086422E-002  -9.4859489542127196E-002   0.00000000    
  -2.5588534136373194E-002  -9.7316865413328443E-002   0.00000000    
   4.0763275803019243E-009  -9.8131406564900464E-002   0.00000000    
   2.5588542301748580E-002  -9.7316865315048004E-002   0.00000000    
   5.0748060056059918E-002  -9.4859489344008105E-002   0.00000000    
   7.5041713242406063E-002  -9.0836266406020036E-002   0.00000000    
   9.8082715239487778E-002  -8.5297594856587999E-002   0.00000000    
  0.11946136933005724       -7.8375621528725847E-002   0.00000000    
  0.13886281311829973       -7.0178570409440172E-002   0.00000000    
  0.15593580785282263       -6.0879935029391770E-002   0.00000000    
  0.17045912364035362       -5.0633486909372291E-002   0.00000000    
  0.18216420109360959       -3.9636909930674820E-002   0.00000000    
  0.19093538514588562       -2.8073586909769788E-002   0.00000000    
  0.19660191656427584       -1.6147643825869307E-002   0.00000000    
  0.19915577636142612       -4.0551711728848121E-003   0.00000000    
  0.19852965952244930        8.0091520607492306E-003   0.00000000    
  0.19481668296830415        1.9851975641452236E-002   0.00000000    
  0.18805025927186689        3.1300437462282706E-002   0.00000000    
  0.17841181131618267        4.2176273918999155E-002   0.00000000    
  0.16602633933146643        5.2336643844484734E-002   0.00000000    
  0.15114690944301301        6.1626962471144291E-002   0.00000000    
  0.13397686925018215        6.9938729334880725E-002   0.00000000    
  0.11482264223764115        7.7146129954612480E-002   0.00000000    
   9.3950594641268995E-002   8.3176362192867059E-002   0.00000000    
   7.1702166834419281E-002   8.7934839690264416E-002   0.00000000    
   4.8390743681448710E-002   9.1384038268144355E-002   0.00000000    
   2.4375207164499594E-002   9.3461530681374930E-002   0.00000000    
   0.0000000000000000        9.4163976355614701E-002   0.00000000    
   0.0000000000000000       0.11901604774538489        0.00000000    
  -2.5159161394075397E-002  0.11814503286444838        0.00000000    
  -4.9956737577307064E-002  0.11551485389112681        0.00000000    
  -7.4023342694429256E-002  0.11118325755006664        0.00000000    
  -9.7020500780926139E-002  0.10517473591652575        0.00000000    
 -0.11858675297511809        9.7587262274376946E-002   0.00000000    
 -0.13842227332524099        8.8488550691055157E-002   0.00000000    
 -0.15619031946749815        7.8016433895001722E-002   0.00000000    
 -0.17164582742068327        6.6283316605141918E-002   0.00000000    
 -0.18449492817592489        5.3465380065310042E-002   0.00000000    
 -0.19456374076351721        3.9719797733653923E-002   0.00000000    
 -0.20162046360115862        2.5256967896014702E-002   0.00000000    
 -0.20557805850101982        1.0275937477901557E-002   0.00000000    
 -0.20628583941230730       -4.9868525077645135E-003   0.00000000    
 -0.20375659373295532       -2.0297861487021805E-002   0.00000000    
 -0.19793757711909296       -3.5407710683852719E-002   0.00000000    
 -0.18894916189034508       -5.0061178668453880E-002   0.00000000    
 -0.17684840279853181       -6.4013847726048914E-002   0.00000000    
 -0.16186313023089388       -7.7006955808350097E-002   0.00000000    
 -0.14416418940997722       -8.8822278773700747E-002   0.00000000    
 -0.12407681396042768       -9.9219525913497184E-002   0.00000000    
 -0.10187945442555750      -0.10802849745680916        0.00000000    
  -7.7974099775468805E-002 -0.11505051400214883        0.00000000    
  -5.2729477367688619E-002 -0.12018231103033342        0.00000000    
  -2.6594300368256572E-002 -0.12328753182272839        0.00000000    
   3.9245208139612494E-009 -0.12434237589954975        0.00000000    
   2.6594308229864191E-002 -0.12328753174973409        0.00000000    
   5.2729485119823234E-002 -0.12018231075505320        0.00000000    
   7.7974107511581278E-002 -0.11505051367992380        0.00000000    
  0.10187946213475356      -0.10802849720104638        0.00000000    
  0.12407682160018385       -9.9219525556224181E-002   0.00000000    
  0.14416419696888083       -8.8822278182028980E-002   0.00000000    
  0.16186313775507441       -7.7006955164391919E-002   0.00000000    
  0.17684841015251446       -6.4013847121196357E-002   0.00000000    
  0.18894916903206113       -5.0061177901479625E-002   0.00000000    
  0.19793758404560022       -3.5407709592553738E-002   0.00000000    
  0.20375660046913183       -2.0297860226592961E-002   0.00000000    
  0.20628584588194604       -4.9868509419041208E-003   0.00000000    
  0.20557806464523809        1.0275939303065237E-002   0.00000000    
  0.20162046935555369        2.5256969924046399E-002   0.00000000    
  0.19456374616607883        3.9719800092667498E-002   0.00000000    
  0.18449493316453361        5.3465382540365758E-002   0.00000000    
  0.17164583192571028        6.6283319054926557E-002   0.00000000    
  0.15619032358902674        7.8016436329368971E-002   0.00000000    
  0.13842227701550458        8.8488553350039370E-002   0.00000000    
  0.11858675621420731        9.7587265049560917E-002   0.00000000    
   9.7020503442297193E-002  0.10517473896124738        0.00000000    
   7.4023344792721255E-002  0.11118326100572999        0.00000000    
   4.9956739024790517E-002  0.11551485762452098        0.00000000    
   2.5159162092115678E-002  0.11814503659363727        0.00000000    
   0.0000000000000000       0.11901605156086759        0.00000000    
   0.0000000000000000       0.14475349075959357        0.00000000    
  -2.6114463262994842E-002  0.14368236466976711        0.00000000    
  -5.1852512530141698E-002  0.14051429766285514        0.00000000    
  -7.6853435183322924E-002  0.13525249158543801        0.00000000    
 -0.10073973724765781       0.12799011196335758        0.00000000    
 -0.12318110035172494       0.11878065128186682        0.00000000    
 -0.14381448691777252       0.10776521818651381        0.00000000    
 -0.16235554625317614        9.5050021212094715E-002   0.00000000    
 -0.17847295336592314        8.0823793465181995E-002   0.00000000    
 -0.19194506364804070        6.5247263038571673E-002   0.00000000    
 -0.20249149969400532        4.8554311924624914E-002   0.00000000    
 -0.20997067084134666        3.0959495859405523E-002   0.00000000    
 -0.21417374541635525        1.2735226867616422E-002   0.00000000    
 -0.21505555064138698       -5.8554082692854311E-003   0.00000000    
 -0.21249905345940959       -2.4513901394146619E-002   0.00000000    
 -0.20656828231597166       -4.2940311729018001E-002   0.00000000    
 -0.19725514639898520       -6.0828982252297908E-002   0.00000000    
 -0.18473886659519317       -7.7861936884850630E-002   0.00000000    
 -0.16913089996661165       -9.3750959951337018E-002   0.00000000    
 -0.15072179923196952      -0.10818517060676096        0.00000000    
 -0.12974330651129740      -0.12092135688254070        0.00000000    
 -0.10658165883359942      -0.13168452857569973        0.00000000    
  -8.1577481414185138E-002 -0.14030286997785543        0.00000000    
  -5.5185312920694882E-002 -0.14656560113493544        0.00000000    
  -2.7830770092250205E-002 -0.15039281680264344        0.00000000    
   3.7373761510191450E-009 -0.15166102435134865        0.00000000    
   2.7830777508323443E-002 -0.15039281668353602        0.00000000    
   5.5185320337719224E-002 -0.14656560079724620        0.00000000    
   8.1577488828115705E-002 -0.14030286969892355        0.00000000    
  0.10658166616953335      -0.13168452817173099        0.00000000    
  0.12974331373002923      -0.12092135648683154        0.00000000    
  0.15072180642885574      -0.10818516995082716        0.00000000    
  0.16913090705253872       -9.3750959225958469E-002   0.00000000    
  0.18473887362497007       -7.7861936135070045E-002   0.00000000    
  0.19725515328120841       -6.0828981270431175E-002   0.00000000    
  0.20656828897937488       -4.2940310418582678E-002   0.00000000    
  0.21249905986073950       -2.4513899900449949E-002   0.00000000    
  0.21505555672712015       -5.8554063545580431E-003   0.00000000    
  0.21417375119735726        1.2735228974064931E-002   0.00000000    
  0.20997067631671204        3.0959498301612640E-002   0.00000000    
  0.20249150479062206        4.8554314600045542E-002   0.00000000    
  0.19194506840345901        6.5247265952371888E-002   0.00000000    
  0.17847295778081831        8.0823796300327308E-002   0.00000000    
  0.16235555020886669        9.5050024103804504E-002   0.00000000    
  0.14381449039565855       0.10776522129722536        0.00000000    
  0.12318110335999560       0.11878065452611339        0.00000000    
  0.10073973977911409       0.12799011559354942        0.00000000    
   7.6853437108861680E-002  0.13525249562462832        0.00000000    
   5.1852513819890048E-002  0.14051430209932150        0.00000000    
   2.6114463918602004E-002  0.14368236907946835        0.00000000    
   0.0000000000000000       0.14475349524821166        0.00000000    
   0.0000000000000000       0.17151224791526268        0.00000000    
  -2.7230566159866021E-002  0.17026972544646413        0.00000000    
  -5.4081018693323990E-002  0.16651652714717197        0.00000000    
  -8.0162049817340708E-002  0.16033330426364753        0.00000000    
 -0.10511624043608050       0.15175088020856423        0.00000000    
 -0.12855900671639039       0.14090510051520777        0.00000000    
 -0.15017000171902622       0.12788623838207724        0.00000000    
 -0.16958500544324451       0.11288615172701821        0.00000000    
 -0.18653689801415388        9.6058049973459958E-002   0.00000000    
 -0.20070010285575018        7.7649408732647487E-002   0.00000000    
 -0.21187877562549301        5.7878361752430774E-002   0.00000000    
 -0.21980701438104275        3.7043942343218693E-002   0.00000000    
 -0.22437916962803670        1.5427096201546127E-002   0.00000000    
 -0.22541172818044636       -6.6318281462359567E-003   0.00000000    
 -0.22290667411457193       -2.8797947514590808E-002   0.00000000    
 -0.21678481561699656       -5.0707810314416034E-002   0.00000000    
 -0.20716821538338129       -7.1990135300365729E-002   0.00000000    
 -0.19409946626678784       -9.2284728534026944E-002   0.00000000    
 -0.17782414711347988      -0.11121037023972101        0.00000000    
 -0.15851537193179607      -0.12844255264342128        0.00000000    
 -0.13653327233640117      -0.14362348388322932        0.00000000    
 -0.11217776426635340      -0.15649847423873792        0.00000000    
  -8.5900647310787559E-002 -0.16676913582872341        0.00000000    
  -5.8110482307723962E-002 -0.17428058604221563        0.00000000    
  -2.9315171101398443E-002 -0.17882660330779199        0.00000000    
   3.4830952731761754E-009 -0.18037210367987078        0.00000000    
   2.9315178122804177E-002 -0.17882660318522059        0.00000000    
   5.8110489411530145E-002 -0.17428058579134167        0.00000000    
   8.5900654431705678E-002 -0.16676913547699451        0.00000000    
  0.11217777127377228      -0.15649847371607070        0.00000000    
  0.13653327925648501      -0.14362348340168132        0.00000000    
  0.15851537880895364      -0.12844255200855445        0.00000000    
  0.17782415396806697      -0.11121036935974582        0.00000000    
  0.19409947289222418       -9.2284727653541593E-002   0.00000000    
  0.20716822186030859       -7.1990134153140900E-002   0.00000000    
  0.21678482197588966       -5.0707808832484519E-002   0.00000000    
  0.22290668027274693       -2.8797945729598710E-002   0.00000000    
  0.22541173404813025       -6.6318259167159974E-003   0.00000000    
  0.22437917518329314        1.5427098610361010E-002   0.00000000    
  0.21980701960302562        3.7043945121969943E-002   0.00000000    
  0.21187878051032571        5.7878364807206310E-002   0.00000000    
  0.20070010746135539        7.7649411887518935E-002   0.00000000    
  0.18653690228945796        9.6058053238358559E-002   0.00000000    
  0.16958500924985878       0.11288615511686945        0.00000000    
  0.15017000509736564       0.12788624190072709        0.00000000    
  0.12855900965148562       0.14090510426437577        0.00000000    
  0.10511624281513943       0.15175088436668543        0.00000000    
   8.0162051588299102E-002  0.16033330898892703        0.00000000    
   5.4081019861284108E-002  0.16651653213633802        0.00000000    
   2.7230566735045161E-002  0.17026973053038819        0.00000000    
   0.0000000000000000       0.17151225296044456        0.00000000    
   0.0000000000000000       0.19948969718833243        0.00000000    
  -2.8507329112121723E-002  0.19803119833997671        0.00000000    
  -5.6617684251394539E-002  0.19371688878069102        0.00000000    
  -8.3950143365048191E-002  0.18654745961558702        0.00000000    
 -0.11010379655156757       0.17664559529085658        0.00000000    
 -0.13472637044996022       0.16407675203233671        0.00000000    
 -0.15742642681647417       0.14902666446365792        0.00000000    
 -0.17789496510441830       0.13163029358681100        0.00000000    
 -0.19576630832266206       0.11213816957874193        0.00000000    
 -0.21079228016538640        9.0759491109821760E-002   0.00000000    
 -0.22265309424442700        6.7808791220800829E-002   0.00000000    
 -0.23118166684745106        4.3571348794661992E-002   0.00000000    
 -0.23612789321135677        1.8419095590241585E-002   0.00000000    
 -0.23742702033350976       -7.2911180999008039E-003   0.00000000    
 -0.23492430411279561       -3.3145404429521984E-002   0.00000000    
 -0.22867610154149751       -5.8729391523882686E-002   0.00000000    