 <VTKFile type="UnstructuredGrid" version="0.1" byte_order="BigEndian">
 <UnstructuredGrid>
 <Piece NumberOfPoints="        2601 " NumberOfCells="        2500 ">
 <PointData Scalars="scalars">
 <DataArray type="Float32" NumberOfComponents="3" Name="Velocity" Format="ascii">
   0.0000000000000000        0.0000000000000000        0.00000000    
  -5.6021811226790057E-002   0.0000000000000000        0.00000000    
 -0.11130608706979553        0.0000000000000000        0.00000000    
 -0.16505773537652829        0.0000000000000000        0.00000000    
 -0.21661338742026945        0.0000000000000000        0.00000000    
 -0.26514355352557961        0.0000000000000000        0.00000000    
 -0.31007384435509611        0.0000000000000000        0.00000000    
 -0.35057420937529221        0.0000000000000000        0.00000000    
 -0.38617669803036303        0.0000000000000000        0.00000000    
 -0.41609764867636317        0.0000000000000000        0.00000000    
 -0.43999882704640986        0.0000000000000000        0.00000000    
 -0.45720253122105542        0.0000000000000000        0.00000000    
 -0.46753015786135116        0.0000000000000000        0.00000000    
 -0.47047758344133234        0.0000000000000000        0.00000000    
 -0.46605986069417088        0.0000000000000000        0.00000000    
 -0.45401299399011197        0.0000000000000000        0.00000000    
 -0.43457748251035871        0.0000000000000000        0.00000000    
 -0.40778226157217001        0.0000000000000000        0.00000000    
 -0.37411333795264406        0.0000000000000000        0.00000000    
 -0.33391815508703920        0.0000000000000000        0.00000000    
 -0.28792604039352837        0.0000000000000000        0.00000000    
 -0.23679106280117240        0.0000000000000000        0.00000000    
 -0.18145313811742789        0.0000000000000000        0.00000000    
 -0.12282050723699688        0.0000000000000000        0.00000000    
  -6.1977675091119282E-002   0.0000000000000000        0.00000000    
   5.6546038852098360E-010   0.0000000000000000        0.00000000    
   6.1977676149624773E-002   0.0000000000000000        0.00000000    
  0.12282050830050671        0.0000000000000000        0.00000000    
  0.18145313915967065        0.0000000000000000        0.00000000    
  0.23679106373847097        0.0000000000000000        0.00000000    
  0.28792604106017650        0.0000000000000000        0.00000000    
  0.33391815556374332        0.0000000000000000        0.00000000    
  0.37411333834782667        0.0000000000000000        0.00000000    
  0.40778226185932898        0.0000000000000000        0.00000000    
  0.43457748253993883        0.0000000000000000        0.00000000    
  0.45401299387679933        0.0000000000000000        0.00000000    
  0.46605986044521808        0.0000000000000000        0.00000000    
  0.47047758290772451        0.0000000000000000        0.00000000    
  0.46753015724378810        0.0000000000000000        0.00000000    
  0.45720253050766124        0.0000000000000000        0.00000000    
  0.43999882644227650        0.0000000000000000        0.00000000    
  0.41609764838408186        0.0000000000000000        0.00000000    
  0.38617669773300356        0.0000000000000000        0.00000000    
  0.35057420910159420        0.0000000000000000        0.00000000    
  0.31007384434341190        0.0000000000000000        0.00000000    
  0.26514355331495221        0.0000000000000000        0.00000000    
  0.21661338725351278        0.0000000000000000        0.00000000    
  0.16505773536295615        0.0000000000000000        0.00000000    
  0.11130608705267642        0.0000000000000000        0.00000000    
   5.6021811215498235E-002   0.0000000000000000        0.00000000    
   0.0000000000000000        0.0000000000000000        0.00000000    
   0.0000000000000000        5.6278836408779391E-002   0.00000000    
  -5.6149590281267252E-002   5.5894026706351553E-002   0.00000000    
 -0.11153094065175635        5.4773061014068404E-002   0.00000000    
 -0.16544275121787325        5.2891859156833324E-002   0.00000000    
 -0.21706865772908909        5.0291160399994088E-002   0.00000000    
 -0.26578889455837063        4.6960703128123039E-002   0.00000000    
 -0.31076664153870204        4.2948794795981335E-002   0.00000000    
 -0.35147881564023481        3.8265203851224866E-002   0.00000000    
 -0.38710818971930716        3.2968117768061349E-002   0.00000000    
 -0.41724808430296134        2.7094185606498827E-002   0.00000000    
 -0.44115455112838098        2.0714916963979698E-002   0.00000000    
 -0.45856384945494516        1.3899542059518580E-002   0.00000000    
 -0.46887032731560357        6.7360181053232942E-003   0.00000000    
 -0.47198589451916878       -6.7157057472659761E-004   0.00000000    
 -0.46751269285030916       -8.2178999912803450E-003   0.00000000    
 -0.45557278446004779       -1.5767422177868577E-002   0.00000000    
 -0.43603878882821018       -2.3200632887473295E-002   0.00000000    
 -0.40927104484548549       -3.0360880859214828E-002   0.00000000    
 -0.37545464261956801       -3.7122994612614153E-002   0.00000000    
 -0.33519935853234817       -4.3326022724646404E-002   0.00000000    
 -0.28901123935139950       -4.8852762197764271E-002   0.00000000    
 -0.23773351932121162       -5.3558487060714088E-002   0.00000000    
 -0.18216079144203207       -5.7350717613002963E-002   0.00000000    
 -0.12332043174038210       -6.0120825452441795E-002   0.00000000    
  -6.2223601793446895E-002  -6.1817389371460620E-002   0.00000000    
   5.9022427890586090E-010  -6.2382441527491089E-002   0.00000000    
   6.2223602984985839E-002  -6.1817389310135737E-002   0.00000000    
  0.12332043277807678       -6.0120825364926488E-002   0.00000000    
  0.18216079237160396       -5.7350717571128376E-002   0.00000000    
  0.23773352022452357       -5.3558486971385100E-002   0.00000000    
  0.28901124021589381       -4.8852761977624976E-002   0.00000000    
  0.33519935912755683       -4.3326022485556004E-002   0.00000000    
  0.37545464287600627       -3.7122994431412801E-002   0.00000000    
  0.40927104506931555       -3.0360880899784122E-002   0.00000000    
  0.43603878902402660       -2.3200632561311666E-002   0.00000000    
  0.45557278430349990       -1.5767422008773121E-002   0.00000000    
  0.46751269242271920       -8.2178997536933793E-003   0.00000000    
  0.47198589403800606       -6.7157047408575061E-004   0.00000000    
  0.46887032671842788        6.7360182046510052E-003   0.00000000    
  0.45856384872563782        1.3899542188153516E-002   0.00000000    
  0.44115455040157281        2.0714916723584872E-002   0.00000000    
  0.41724808374383054        2.7094185367364316E-002   0.00000000    
  0.38710818935010355        3.2968117822346835E-002   0.00000000    
  0.35147881534099246        3.8265203703316493E-002   0.00000000    
  0.31076664114206570        4.2948794779269821E-002   0.00000000    
  0.26578889442353598        4.6960703081975613E-002   0.00000000    
  0.21706865766090663        5.0291160335618472E-002   0.00000000    
  0.16544275114476348        5.2891859072951984E-002   0.00000000    
  0.11153094063941592        5.4773061040727079E-002   0.00000000    
   5.6149590280794207E-002   5.5894026661997942E-002   0.00000000    
   0.0000000000000000        5.6278836441367872E-002   0.00000000    
   0.0000000000000000       0.11277947754847677        0.00000000    
  -5.6497829302851472E-002  0.11204220498982606        0.00000000    
 -0.11226139500421299       0.10977119853043944        0.00000000    
 -0.16649563971413811       0.10604117645277959        0.00000000    
 -0.21854164691332414       0.10081515602261981        0.00000000    
 -0.26756491023662693        9.4181606490462991E-002   0.00000000    
 -0.31299461662844852        8.6136743108352301E-002   0.00000000    
 -0.35398940194229833        7.6785612712629750E-002   0.00000000    
 -0.39008223497174838        6.6171313067884083E-002   0.00000000    
 -0.42047163130057330        5.4421677583703032E-002   0.00000000    
 -0.44481649474427698        4.1640150775414234E-002   0.00000000    
 -0.46241612497341811        2.7984631524847793E-002   0.00000000    
 -0.47308528162270680        1.3627956933433591E-002   0.00000000    
 -0.47629484791530408       -1.2369829887700920E-003   0.00000000    
 -0.47205096502674243       -1.6368180191096850E-002   0.00000000    
 -0.46006741516601168       -3.1539209166362644E-002   0.00000000    
 -0.44057650152307282       -4.6452365060141325E-002   0.00000000    
 -0.41359300438248831       -6.0859000534185012E-002   0.00000000    
 -0.37959932618276410       -7.4433566947110785E-002   0.00000000    
 -0.33894099272347594       -8.6927680254907311E-002   0.00000000    
 -0.29235191875504812       -9.8026910843709431E-002   0.00000000    
 -0.24049792346576404      -0.10751466733467356        0.00000000    
 -0.18433366045552996      -0.11513014233386795        0.00000000    
 -0.12479071115348420      -0.12072332420596125        0.00000000    
  -6.2977749276718786E-002 -0.12412329717505155        0.00000000    
   5.5445174470516522E-010 -0.12527650079759320        0.00000000    
   6.2977750357542051E-002 -0.12412329709673679        0.00000000    
  0.12479071227864295      -0.12072332402592666        0.00000000    
  0.18433366152758701      -0.11513014222328842        0.00000000    
  0.24049792444809809      -0.10751466719806728        0.00000000    
  0.29235191968318447       -9.8026910577831805E-002   0.00000000    
  0.33894099330272837       -8.6927679443385725E-002   0.00000000    
  0.37959932636964916       -7.4433566607202822E-002   0.00000000    
  0.41359300434513868       -6.0859000476617880E-002   0.00000000    
  0.44057650130806458       -4.6452364626443816E-002   0.00000000    
  0.46006741489511283       -3.1539208696548471E-002   0.00000000    
  0.47205096449629691       -1.6368179723639780E-002   0.00000000    
  0.47629484719459797       -1.2369828741659349E-003   0.00000000    
  0.47308528082811324        1.3627957208698719E-002   0.00000000    
  0.46241612398777165        2.7984631800729569E-002   0.00000000    
  0.44481649366931036        4.1640150474593657E-002   0.00000000    
  0.42047163038974034        5.4421677073183551E-002   0.00000000    
  0.39008223445224977        6.6171312812292937E-002   0.00000000    
  0.35398940160863263        7.6785612618803553E-002   0.00000000    
  0.31299461640530035        8.6136743024434748E-002   0.00000000    
  0.26756491000949656        9.4181606253702144E-002   0.00000000    
  0.21854164684331165       0.10081515592508708        0.00000000    
  0.16649563971898462       0.10604117633212407        0.00000000    
  0.11226139495489458       0.10977119858726760        0.00000000    
   5.6497829208932079E-002  0.11204220494803624        0.00000000    
   0.0000000000000000       0.11277947748410877        0.00000000    
   0.0000000000000000       0.16978083918083436        0.00000000    
  -5.7088523856859419E-002  0.16862853468501482        0.00000000    
 -0.11341300353109247       0.16527425228522336        0.00000000    
 -0.16828082130722957       0.15964152302307608        0.00000000    
 -0.22087137060344908       0.15185270350965582        0.00000000    
 -0.27057387562968888       0.14187116445505402        0.00000000    
 -0.31653562820287723       0.12983998076024245        0.00000000    
 -0.35823889428359151       0.11578176244444814        0.00000000    
 -0.39483723228659967        9.9867669751226601E-002   0.00000000    
 -0.42592257670407457        8.2201396197953122E-002   0.00000000    
 -0.45070933901848553        6.2993391734612228E-002   0.00000000    
 -0.46892430842762683        4.2447323063507299E-002   0.00000000    
 -0.47991221465720113        2.0823660303638223E-002   0.00000000    
 -0.48356875294315727       -1.5652507753673890E-003   0.00000000    
 -0.47944666865941504       -2.4404549449087095E-002   0.00000000    
 -0.46764959493165470       -4.7282134399895016E-002   0.00000000    
 -0.44801164449739289       -6.9836975677062596E-002   0.00000000    
 -0.42087969896864141       -9.1588505328506736E-002   0.00000000    
 -0.38642146800844068      -0.11215464485664177        0.00000000    
 -0.34524626287696852      -0.13103881531931821        0.00000000    
 -0.29787003473866791      -0.14787975294076081        0.00000000    
 -0.24515467933432974      -0.16222985163501111        0.00000000    
 -0.18793136455467011      -0.17380121201167575        0.00000000    
 -0.12726687012892321      -0.18225837485452503        0.00000000    
  -6.4227924364643224E-002 -0.18743883102015471        0.00000000    
   5.5725634942857295E-010 -0.18916531869855399        0.00000000    
   6.4227925424398244E-002 -0.18743883085900209        0.00000000    
  0.12726687112960741      -0.18225837474259282        0.00000000    
  0.18793136557452986      -0.17380121179906793        0.00000000    
  0.24515468024503045      -0.16222985140155183        0.00000000    
  0.29787003521871708      -0.14787975228688688        0.00000000    
  0.34524626319107599      -0.13103881438096732        0.00000000    
  0.38642146827011375      -0.11215464419876137        0.00000000    
  0.42087969878636305       -9.1588504920725927E-002   0.00000000    
  0.44801164409051336       -6.9836975191319234E-002   0.00000000    
  0.46764959451244065       -4.7282133913901507E-002   0.00000000    
  0.47944666811711301       -2.4404548615174784E-002   0.00000000    
  0.48356875197476001       -1.5652504108628611E-003   0.00000000    
  0.47991221347670054        2.0823660614994091E-002   0.00000000    
  0.46892430732670853        4.2447323414768569E-002   0.00000000    
  0.45070933798445778        6.2993391380841826E-002   0.00000000    
  0.42592257580577952        8.2201395440517480E-002   0.00000000    
  0.39483723159096351        9.9867669148558019E-002   0.00000000    
  0.35823889403333781       0.11578176206648363        0.00000000    
  0.31653562817099756       0.12983998063157157        0.00000000    
  0.27057387564728785       0.14187116421755000        0.00000000    
  0.22087137056257256       0.15185270331422340        0.00000000    
  0.16828082127608826       0.15964152291572645        0.00000000    
  0.11341300350006349       0.16527425238279794        0.00000000    
   5.7088523853128820E-002  0.16862853461978097        0.00000000    
   0.0000000000000000       0.16978083904226013        0.00000000    
   0.0000000000000000       0.22741835573487240        0.00000000    
  -5.7870413400540943E-002  0.22595123200402539        0.00000000    
 -0.11501802026204860       0.22142491799059943        0.00000000    
 -0.17064933871971263       0.21399126985803718        0.00000000    
 -0.22412060455266644       0.20356604773513026        0.00000000    
 -0.27458345151490920       0.19032444779057775        0.00000000    
 -0.32147969562586115       0.17424596907520642        0.00000000    
 -0.36393465408295567       0.15553527310988821        0.00000000    
 -0.40148584924089792       0.13426496588170497        0.00000000    
 -0.43327795640015382       0.11068282460947930        0.00000000    
 -0.45896259188442984        8.4984633119754849E-002   0.00000000    
 -0.47776833931018914        5.7478069723720132E-002   0.00000000    
 -0.48949035580707539        2.8504106507196866E-002   0.00000000    
 -0.49352152218389655       -1.5567230455627073E-003   0.00000000    
 -0.48984023778750135       -3.2215177703177299E-002   0.00000000    
 -0.47808998406115877       -6.3017566340215242E-002   0.00000000    
 -0.45847624215832478       -9.3351969898993012E-002   0.00000000    
 -0.43096831696871157      -0.12271211651599608        0.00000000    
 -0.39603494590878113      -0.15042137136154804        0.00000000    
 -0.35401473529734939      -0.17596624099939259        0.00000000    
 -0.30565285658558922      -0.19868917136055508        0.00000000    
 -0.25165155471454315      -0.21813582834877804        0.00000000    
 -0.19300850070672129      -0.23376034251840805        0.00000000    
 -0.13072825187954598      -0.24524272642442366        0.00000000    
  -6.5992673477894809E-002 -0.25222774273866588        0.00000000    
   4.0147886303693384E-010 -0.25459574503855253        0.00000000    
   6.5992674271481699E-002 -0.25222774251338487        0.00000000    
  0.13072825259342485      -0.24524272623784069        0.00000000    
  0.19300850132840774      -0.23376034230743414        0.00000000    
  0.25165155512112897      -0.21813582778942575        0.00000000    
  0.30565285684555743      -0.19868917045530482        0.00000000    
  0.35401473543583989      -0.17596624002499878        0.00000000    
  0.39603494586667354      -0.15042137050667784        0.00000000    
  0.43096831691035908      -0.12271211584500862        0.00000000    
  0.45847624191487241       -9.3351969266755097E-002   0.00000000    
  0.47808998333909281       -6.3017565509768073E-002   0.00000000    
  0.48984023687620265       -3.2215176901397996E-002   0.00000000    
  0.49352152131032895       -1.5567222605609992E-003   0.00000000    
  0.48949035468329488        2.8504106860371588E-002   0.00000000    
  0.47776833837750471        5.7478069762484305E-002   0.00000000    
  0.45896259123576849        8.4984632727567649E-002   0.00000000    
  0.43327795567010990       0.11068282383611062        0.00000000    
  0.40148584871729293       0.13426496488587139        0.00000000    
  0.36393465368996475       0.15553527254909191        0.00000000    
  0.32147969548843663       0.17424596865542680        0.00000000    
  0.27458345162271014       0.19032444754947789        0.00000000    
  0.22412060472195802       0.20356604754027835        0.00000000    
  0.17064933876185026       0.21399126986752603        0.00000000    
  0.11501802023365336       0.22142491804175571        0.00000000    
   5.7870413353376129E-002  0.22595123197668054        0.00000000    
   0.0000000000000000       0.22741835550751330        0.00000000    
   0.0000000000000000       0.28600372310952549        0.00000000    
  -5.8854357777796990E-002  0.28409185096288792        0.00000000    
 -0.11695614330473413       0.27853490648538282        0.00000000    
 -0.17363349003852990       0.26919116134726545        0.00000000    
 -0.22806001452922947       0.25626516109419323        0.00000000    
 -0.27964662049426686       0.23967600135018918        0.00000000    
 -0.32751078117585714       0.21965603386016330        0.00000000    
 -0.37114926964185291       0.19621986803078750        0.00000000    
 -0.40965766667118642       0.16964117533226250        0.00000000    
 -0.44262845770731274       0.14007072457097280        0.00000000    
 -0.46919080996392293       0.10784493137802498        0.00000000    
 -0.48905445367082379        7.3288371962501500E-002   0.00000000    
 -0.50146003957336749        3.6822615185452184E-002   0.00000000    
 -0.50627032500464031       -1.0325725955005129E-003   0.00000000    
 -0.50293221107006691       -3.9757520077187379E-002   0.00000000    
 -0.49150920807191018       -7.8647275489542812E-002   0.00000000    
 -0.47175123101278493      -0.11709277543433977        0.00000000    
 -0.44397289351524793      -0.15425637052464025        0.00000000    
 -0.40830259667117103      -0.18947958298123702        0.00000000    
 -0.36534293687734370      -0.22188669849208967        0.00000000    
 -0.31562975064438903      -0.25084257825789208        0.00000000    
 -0.26005812195710204      -0.27555415221493124        0.00000000    
 -0.19953698024278921      -0.29550501511879218        0.00000000    
 -0.13521113004401678      -0.31010295407455613        0.00000000    
  -6.8265398360205468E-002 -0.31904762668355574        0.00000000    
   2.8444313631742994E-010 -0.32203273529145643        0.00000000    
   6.8265398811810638E-002 -0.31904762633162276        0.00000000    
  0.13521113052288811      -0.31010295396218290        0.00000000    
  0.19953698058980696      -0.29550501460956241        0.00000000    
  0.26005812198834821      -0.27555415142296363        0.00000000    
  0.31562975043681374      -0.25084257719981784        0.00000000    
  0.36534293658384320      -0.22188669746311690        0.00000000    
  0.40830259650539524      -0.18947958212807214        0.00000000    
  0.44397289327785266      -0.15425636976408294        0.00000000    
  0.47175123053857781      -0.11709277446975998        0.00000000    
  0.49150920741752813       -7.8647274332648953E-002   0.00000000    
  0.50293221015863954       -3.9757519155576286E-002   0.00000000    
  0.50627032384165427       -1.0325717165031198E-003   0.00000000    
  0.50146003869498934        3.6822615410236209E-002   0.00000000    
  0.48905445295254796        7.3288371778457720E-002   0.00000000    
  0.46919080928134360       0.10784493088892594        0.00000000    
  0.44262845712633675       0.14007072387429548        0.00000000    
  0.40965766601142251       0.16964117413208626        0.00000000    
  0.37114926939863591       0.19621986712717276        0.00000000    
  0.32751078126131755       0.21965603319895807        0.00000000    
  0.27964662064942852       0.23967600103558800        0.00000000    
  0.22806001456443803       0.25626516103130476        0.00000000    
  0.17363349009267628       0.26919116133300736        0.00000000    
  0.11695614331479560       0.27853490667490366        0.00000000    
   5.8854357750728115E-002  0.28409185085307831        0.00000000    
   0.0000000000000000       0.28600372289039727        0.00000000    
   0.0000000000000000       0.34554937629642352        0.00000000    
  -5.9968734337404496E-002  0.34337044372371339        0.00000000    
 -0.11923901280476447       0.33662953140274937        0.00000000    
 -0.17702477532520175       0.32556079919023040        0.00000000    
 -0.23271331664649028       0.31001174212962107        0.00000000    
 -0.28543723295579487       0.29024109530250469        0.00000000    
 -0.33466572100380820       0.26618474063901387        0.00000000    
 -0.37947094318078167       0.23813602337449874        0.00000000    
 -0.41940429063480594       0.20616791500009540        0.00000000    
 -0.45351984032684972       0.17063147548057309        0.00000000    
 -0.48146195076913795       0.13178979187286147        0.00000000    
 -0.50233577973135779        9.0082132027303821E-002   0.00000000    
 -0.51590551828842857        4.6005326196998417E-002   0.00000000    
 -0.52142366444350663        1.1429367817134985E-004   0.00000000    
 -0.51881950785308584       -4.6845512504855587E-002   0.00000000    
 -0.50760650479010505       -9.4194145724075570E-002   0.00000000    
 -0.48793802984536788      -0.14097121510071761        0.00000000    
 -0.45969681187121164      -0.18639634518838985        0.00000000    
 -0.42331884702825878      -0.22938673003741422        0.00000000    
 -0.37912716029549159      -0.26912975886824286        0.00000000    
 -0.32787650608651903      -0.30456222019720458        0.00000000    
 -0.27033439904060125      -0.33494710858411120        0.00000000    
 -0.20756528955579370      -0.35940117321299536        0.00000000    
 -0.14070622948348588      -0.37739056997187070        0.00000000    
  -7.1062695805555701E-002 -0.38834814022649899        0.00000000    
  -8.3589086298149815E-011 -0.39205918035198312        0.00000000    
   7.1062695740251952E-002 -0.38834813985915922        0.00000000    
  0.14070622929574622      -0.37739056977973390        0.00000000    
  0.20756528948079084      -0.35940117276441225        0.00000000    
  0.27033439910446322      -0.33494710755459117        0.00000000    
  0.32787650612246316      -0.30456221910994324        0.00000000    
  0.37912716037769206      -0.26912975782878817        0.00000000    
  0.42331884681785936      -0.22938672902985607        0.00000000    
  0.45969681127486250      -0.18639634412465611        0.00000000    
  0.48793802893363725      -0.14097121388712097        0.00000000    
  0.50760650377238592       -9.4194144530035023E-002   0.00000000    
  0.51881950683705447       -4.6845511365032719E-002   0.00000000    
  0.52142366352773195        1.1429449025842639E-004   0.00000000    
  0.51590551741509771        4.6005326161641373E-002   0.00000000    
  0.50233577917231986        9.0082131629005330E-002   0.00000000    
  0.48146195054760405       0.13178979122481696        0.00000000    
  0.45351984026618153       0.17063147468037226        0.00000000    
  0.41940429061861451       0.20616791393775363        0.00000000    
  0.37947094286616384       0.23813602221492830        0.00000000    
  0.33466572079106149       0.26618473980321561        0.00000000    
  0.28543723277274052       0.29024109506310253        0.00000000    
  0.23271331658920325       0.31001174198571912        0.00000000    
  0.17702477527307423       0.32556079923288861        0.00000000    
  0.11923901283245644       0.33662953149961883        0.00000000    
   5.9968734514652136E-002  0.34337044359412927        0.00000000    
   0.0000000000000000       0.34554937624724813        0.00000000    
   0.0000000000000000       0.40637873360205612        0.00000000    
  -6.1214573180382349E-002  0.40372548653492335        0.00000000    
 -0.12170109734323770       0.39603238373240895        0.00000000    
 -0.18082682792031049       0.38307053214687536        0.00000000    
 -0.23776343415806944       0.36512824865592441        0.00000000    
 -0.29196332579404410       0.34204948801435864        0.00000000    
 -0.34250455726523904       0.31414715829940892        0.00000000    
 -0.38891542257484063       0.28139078313989085        0.00000000    
 -0.43020643066806380       0.24413860011107308        0.00000000    
 -0.46598007375885658       0.20255107132652966        0.00000000    
 -0.49523342855442798       0.15706674866963666        0.00000000    
 -0.51765669146322291       0.10810335316853999        0.00000000    
 -0.53232223668368261        5.6220473994009798E-002   0.00000000    
 -0.53904346931075975        2.1396083786395623E-003   0.00000000    
 -0.53708975956415839       -5.3427610832221265E-002   0.00000000    
 -0.52645694376633134      -0.10945678501023677        0.00000000    
 -0.50674892874026456      -0.16508398558404239        0.00000000    
 -0.47821817681856676      -0.21905446578071400        0.00000000    
 -0.44092165673179889      -0.27040201656282514        0.00000000    
 -0.39543609011426678      -0.31779064908095572        0.00000000    
 -0.34232790797063994      -0.36025909060237626        0.00000000    
 -0.28252972942326066      -0.39658944896628345        0.00000000    
 -0.21708066151993322      -0.42597593606510165        0.00000000    
 -0.14723875635407241      -0.44751569879121339        0.00000000    
  -7.4385402939944209E-002 -0.46071882528085983        0.00000000    
  -3.3624782767655394E-010 -0.46513552060572905        0.00000000    
   7.4385402373109644E-002 -0.46071882512105555        0.00000000    
  0.14723875603324635      -0.44751569851511347        0.00000000    
  0.21708066107741764      -0.42597593569152920        0.00000000    
  0.28252972904832124      -0.39658944806819446        0.00000000    
  0.34232790773593985      -0.36025908949600466        0.00000000    
  0.39543608977012568      -0.31779064799742679        0.00000000    
  0.44092165626448215      -0.27040201518356588        0.00000000    
  0.47821817594347121      -0.21905446429495276        0.00000000    
  0.50674892764303547      -0.16508398425495813        0.00000000    
  0.52645694267481646      -0.10945678383140972        0.00000000    
  0.53708975850726071       -5.3427609713489595E-002   0.00000000    
  0.53904346836378825        2.1396090016349385E-003   0.00000000    
  0.53232223605492612        5.6220473787085598E-002   0.00000000    
  0.51765669096188438       0.10810335250009795        0.00000000    
  0.49523342828851602       0.15706674771880491        0.00000000    
  0.46598007370580985       0.20255107045538531        0.00000000    
  0.43020643056113339       0.24413859912908109        0.00000000    
  0.38891542256425365       0.28139078210205332        0.00000000    
  0.34250455710189348       0.31414715739276478        0.00000000    
  0.29196332582114509       0.34204948762566295        0.00000000    
  0.23776343433898403       0.36512824838173469        0.00000000    
  0.18082682820421478       0.38307053221167264        0.00000000    
  0.12170109761685687       0.39603238373760496        0.00000000    
   6.1214573242131559E-002  0.40372548655932688        0.00000000    
   0.0000000000000000       0.40637873363788946        0.00000000    
   0.0000000000000000       0.46833550313347749        0.00000000    
  -6.2495002095345094E-002  0.46547932380730217        0.00000000    
 -0.12433578901023701       0.45660688888950929        0.00000000    
 -0.18475627921215415       0.44204327894468748        0.00000000    
 -0.24319863746839038       0.42153549700525361        0.00000000    
 -0.29877761734493680       0.39542214147773114        0.00000000    
 -0.35101386794007261       0.36355301635276538        0.00000000    
 -0.39891124916957288       0.32629420054462377        0.00000000    
 -0.44205465519120407       0.28367062459789594        0.00000000    
 -0.47937102662040582       0.23611008842834677        0.00000000    
 -0.51050688613597417       0.18389797156492374        0.00000000    
 -0.53438374588289583       0.12757327774003049        0.00000000    
 -0.55072866877186166        6.7762040791693484E-002   0.00000000    
 -0.55857482049147755        5.1664481700720187E-003   0.00000000    
 -0.55777881742383906       -5.9203142824077008E-002   0.00000000    
 -0.54764215884399570      -0.12444970789577964        0.00000000    