 <VTKFile type="UnstructuredGrid" version="0.1" byte_order="BigEndian">
 <UnstructuredGrid>
 <Piece NumberOfPoints="        2601 " NumberOfCells="        2500 ">
 <PointData Scalars="scalars">
 <DataArray type="Float32" NumberOfComponents="3" Name="Velocity" Format="ascii">
   0.0000000000000000        0.0000000000000000        0.00000000    
  -9.2187212694904902E-002   0.0000000000000000        0.00000000    
 -0.18340720754782233        0.0000000000000000        0.00000000    
 -0.27260306983793281        0.0000000000000000        0.00000000    
 -0.35886752783338599        0.0000000000000000        0.00000000    
 -0.44103277561955140        0.0000000000000000        0.00000000    
 -0.51822556032108402        0.0000000000000000        0.00000000    
 -0.58916773453323956        0.0000000000000000        0.00000000    
 -0.65301102815259027        0.0000000000000000        0.00000000    
 -0.70840399469572690        0.0000000000000000        0.00000000    
 -0.75454531597567731        0.0000000000000000        0.00000000    
 -0.79009813874845414        0.0000000000000000        0.00000000    
 -0.81437366898333807        0.0000000000000000        0.00000000    
 -0.82619607781316595        0.0000000000000000        0.00000000    
 -0.82510301034848643        0.0000000000000000        0.00000000    
 -0.81027554973601246        0.0000000000000000        0.00000000    
 -0.78162846960301413        0.0000000000000000        0.00000000    
 -0.73891024757150370        0.0000000000000000        0.00000000    
 -0.68256692671958774        0.0000000000000000        0.00000000    
 -0.61307984950025685        0.0000000000000000        0.00000000    
 -0.53153264182878812        0.0000000000000000        0.00000000    
 -0.43919344181146863        0.0000000000000000        0.00000000    
 -0.33778808791728748        0.0000000000000000        0.00000000    
 -0.22927066121386191        0.0000000000000000        0.00000000    
 -0.11587793307347147        0.0000000000000000        0.00000000    
   4.3863307581268857E-009   0.0000000000000000        0.00000000    
  0.11587794167353607        0.0000000000000000        0.00000000    
  0.22927066958887607        0.0000000000000000        0.00000000    
  0.33778809573594354        0.0000000000000000        0.00000000    
  0.43919344883862799        0.0000000000000000        0.00000000    
  0.53153264798700295        0.0000000000000000        0.00000000    
  0.61307985465623793        0.0000000000000000        0.00000000    
  0.68256693169918103        0.0000000000000000        0.00000000    
  0.73891025177005409        0.0000000000000000        0.00000000    
  0.78162847328543605        0.0000000000000000        0.00000000    
  0.81027555293065945        0.0000000000000000        0.00000000    
  0.82510301283865484        0.0000000000000000        0.00000000    
  0.82619607993636635        0.0000000000000000        0.00000000    
  0.81437367101592095        0.0000000000000000        0.00000000    
  0.79009814083928687        0.0000000000000000        0.00000000    
  0.75454531770832534        0.0000000000000000        0.00000000    
  0.70840399579330149        0.0000000000000000        0.00000000    
  0.65301102898700036        0.0000000000000000        0.00000000    
  0.58916773480036400        0.0000000000000000        0.00000000    
  0.51822556030746769        0.0000000000000000        0.00000000    
  0.44103277546512121        0.0000000000000000        0.00000000    
  0.35886752764651181        0.0000000000000000        0.00000000    
  0.27260306984239024        0.0000000000000000        0.00000000    
  0.18340720767050769        0.0000000000000000        0.00000000    
   9.2187212767225232E-002   0.0000000000000000        0.00000000    
   0.0000000000000000        0.0000000000000000        0.00000000    
   0.0000000000000000        9.2428874990391513E-002   0.00000000    
  -9.2167185003406246E-002   9.1926992288074785E-002   0.00000000    
 -0.18333181108342378        9.0459098019241263E-002   0.00000000    
 -0.27256692094266211        8.7973343081067662E-002   0.00000000    
 -0.35876653976054512        8.4492202069766667E-002   0.00000000    
 -0.44104912425375631        7.9957097709136726E-002   0.00000000    
 -0.51819218549464552        7.4380214724440508E-002   0.00000000    
 -0.58933934958815171        6.7710588840036057E-002   0.00000000    
 -0.65316713322258935        5.9961952294487031E-002   0.00000000    
 -0.70884765464070054        5.1112997956913611E-002   0.00000000    
 -0.75501587994235220        4.1198009210118729E-002   0.00000000    
 -0.79091351235717733        3.0253904672294645E-002   0.00000000    
 -0.81525023066686364        1.8359800603113006E-002   0.00000000    
 -0.82742657623319193        5.6404084196614536E-003   0.00000000    
 -0.82640185792193532       -7.7567416947803202E-003   0.00000000    
 -0.81187134849435916       -2.1599778043851738E-002   0.00000000    
 -0.78325711405318532       -3.5660088386786089E-002   0.00000000    
 -0.74070992542844649       -4.9603876271809975E-002   0.00000000    
 -0.68431694388202613       -6.3130982160995469E-002   0.00000000    
 -0.61482602716882051       -7.5845569729153794E-002   0.00000000    
 -0.53311217013986312       -8.7414054662338925E-002   0.00000000    
 -0.44058614871226154       -9.7449728002701658E-002   0.00000000    
 -0.33889198526466252      -0.10564835182781090        0.00000000    
 -0.23004471615259411      -0.11171490746228628        0.00000000    
 -0.11627468834330987      -0.11544641263323079        0.00000000    
   4.4435295446812714E-009 -0.11670478209997040        0.00000000    
  0.11627469715660767      -0.11544641238687255        0.00000000    
  0.23004472449301938      -0.11171490701072101        0.00000000    
  0.33889199299424710      -0.10564835111217749        0.00000000    
  0.44058615575775240       -9.7449727242745643E-002   0.00000000    
  0.53311217649427267       -8.7414053862268651E-002   0.00000000    
  0.61482603311939776       -7.5845569123158235E-002   0.00000000    
  0.68431694885466576       -6.3130981612665810E-002   0.00000000    
  0.74070992991972895       -4.9603875557739013E-002   0.00000000    
  0.78325711779694074       -3.5660087837201447E-002   0.00000000    
  0.81187135145188438       -2.1599777319431409E-002   0.00000000    
  0.82640186040024666       -7.7567412355078807E-003   0.00000000    
  0.82742657853872503        5.6404085001356503E-003   0.00000000    
  0.81525023296130805        1.8359800624345099E-002   0.00000000    
  0.79091351418113742        3.0253905063296890E-002   0.00000000    
  0.75501588143509057        4.1198009508522981E-002   0.00000000    
  0.70884765612558631        5.1112998301435814E-002   0.00000000    
  0.65316713420338302        5.9961952717221337E-002   0.00000000    
  0.58933935016912653        6.7710589384406078E-002   0.00000000    
  0.51819218565253167        7.4380214883899509E-002   0.00000000    
  0.44104912428893150        7.9957097813202135E-002   0.00000000    
  0.35876653976861855        8.4492202025246405E-002   0.00000000    
  0.27256692089371448        8.7973342991277528E-002   0.00000000    
  0.18333181104563992        9.0459097979639178E-002   0.00000000    
   9.2167184986620160E-002   9.1926992357043477E-002   0.00000000    
   0.0000000000000000        9.2428874976956454E-002   0.00000000    
   0.0000000000000000       0.18476837622635672        0.00000000    
  -9.2056636877241665E-002  0.18381272085203038        0.00000000    
 -0.18317149924083498       0.18085426559846055        0.00000000    
 -0.27230972023802746       0.17595291365816762        0.00000000    
 -0.35858995332102245       0.16899389003869464        0.00000000    
 -0.44085960999053975       0.16000905675530672        0.00000000    
 -0.51826834430042390       0.14888145600610039        0.00000000    
 -0.58954161890872103       0.13563118986684169        0.00000000    
 -0.65384621503815255       0.12017513317061596        0.00000000    
 -0.70981675681525258       0.10255228089605795        0.00000000    
 -0.75665327014450146        8.2764863710007824E-002   0.00000000    
 -0.79298238837652069        6.0915197808697946E-002   0.00000000    
 -0.81809811547173639        3.7152347779208811E-002   0.00000000    
 -0.83076554089057375        1.1693025093955738E-002   0.00000000    
 -0.83048620581736121       -1.5112021133569797E-002   0.00000000    
 -0.81636925631362978       -4.2890569073609351E-002   0.00000000    
 -0.78828166724478699       -7.1069734672945362E-002   0.00000000    
 -0.74590754102937973       -9.9114160760739881E-002   0.00000000    
 -0.68964826371224353      -0.12627157459542157        0.00000000    
 -0.61995303764707710      -0.15188974006332043        0.00000000    
 -0.53788224994291300      -0.17515315085365837        0.00000000    
 -0.44472054315335269      -0.19539698337210595        0.00000000    
 -0.34220663617969588      -0.21190779153522321        0.00000000    
 -0.23235735083493170      -0.22415064787560013        0.00000000    
 -0.11746258404095927      -0.23167409317869961        0.00000000    
   4.6346569055305276E-009 -0.23421300972251599        0.00000000    
  0.11746259302813314      -0.23167409257643995        0.00000000    
  0.23235735932879995      -0.22415064681375740        0.00000000    
  0.34220664409048002      -0.21190779023594219        0.00000000    
  0.44472055071552646      -0.19539698216309437        0.00000000    
  0.53788225699643388      -0.17515314930290909        0.00000000    
  0.61995304368047477      -0.15188973878404818        0.00000000    
  0.68964826925738343      -0.12627157325417285        0.00000000    
  0.74590754575827212       -9.9114159541982716E-002   0.00000000    
  0.78828167156955387       -7.1069733476394018E-002   0.00000000    
  0.81636925990355724       -4.2890567475086468E-002   0.00000000    
  0.83048620881343127       -1.5112020475328610E-002   0.00000000    
  0.83076554374970146        1.1693025285182072E-002   0.00000000    
  0.81809811791867115        3.7152348112971162E-002   0.00000000    
  0.79298239064069065        6.0915198540419394E-002   0.00000000    
  0.75665327206266442        8.2764864344921710E-002   0.00000000    
  0.70981675832987479       0.10255228131546418        0.00000000    
  0.65384621669794973       0.12017513387738311        0.00000000    
  0.58954162013270572       0.13563119096280962        0.00000000    
  0.51826834519384790       0.14888145636761055        0.00000000    
  0.44085961076278229       0.16000905690121303        0.00000000    
  0.35858995396564469       0.16899389010705490        0.00000000    
  0.27230972057592195       0.17595291381924633        0.00000000    
  0.18317149924289350       0.18085426563266135        0.00000000    
   9.2056636876194878E-002  0.18381272082930322        0.00000000    
   0.0000000000000000       0.18476837628678416        0.00000000    
   0.0000000000000000       0.27699648664434401        0.00000000    
  -9.1872524114939333E-002  0.27551511788520028        0.00000000    
 -0.18279066870000443       0.27118622177752860        0.00000000    
 -0.27187955785569368       0.26384941344014590        0.00000000    
 -0.35807173083407834       0.25357114154219107        0.00000000    
 -0.44053580420662219       0.24016687961581973        0.00000000    
 -0.51807026871246042       0.22366817531803929        0.00000000    
 -0.58985898954032723       0.20390780801900221        0.00000000    
 -0.65457096007224413       0.18091642237783354        0.00000000    
 -0.71139765856551418       0.15460957093856836        0.00000000    
 -0.75892578841603819       0.12507355416332300        0.00000000    
 -0.79638372757844600        9.2394900018019005E-002   0.00000000    
 -0.82238492903519422        5.6790907447322792E-002   0.00000000    
 -0.83627707838424448        1.8615371234479417E-002   0.00000000    
 -0.83688315488867115       -2.1706296939105984E-002   0.00000000    
 -0.82381174281200809       -6.3483328337359118E-002   0.00000000    
 -0.79633927941464022      -0.10603570357248870        0.00000000    
 -0.75451837343457162      -0.14834190209045359        0.00000000    
 -0.69833068318145342      -0.18948948098771692        0.00000000    
 -0.62844935034100424      -0.22824707482209630        0.00000000    
 -0.54573074422642553      -0.26358389399721821        0.00000000    
 -0.45156986825261108      -0.29428750873819159        0.00000000    
 -0.34769539224731189      -0.31940433625894776        0.00000000    
 -0.23618692624029727      -0.33801054268490449        0.00000000    
 -0.11943571418571752      -0.34945886612809279        0.00000000    
   4.6067577385516318E-009 -0.35332523352090311        0.00000000    
  0.11943572332425353      -0.34945886516871366        0.00000000    
  0.23618693501637655      -0.33801054112441831        0.00000000    
  0.34769540052322473      -0.31940433437505944        0.00000000    
  0.45156987580737529      -0.29428750704402945        0.00000000    
  0.54573075117258996      -0.26358389181436626        0.00000000    
  0.62844935682103509      -0.22824707268866959        0.00000000    
  0.69833068888836392      -0.18948947923924442        0.00000000    
  0.75451837885813744      -0.14834190017932708        0.00000000    
  0.79633928407420973      -0.10603570190018502        0.00000000    
  0.82381174738013252       -6.3483326388303882E-002   0.00000000    
  0.83688315931227342       -2.1706295893017806E-002   0.00000000    
  0.83627708193967865        1.8615372042969605E-002   0.00000000    
  0.82238493194617568        5.6790908220467375E-002   0.00000000    
  0.79638373008532648        9.2394900897224214E-002   0.00000000    
  0.75892579077795996       0.12507355514171897        0.00000000    
  0.71139766063063226       0.15460957171483725        0.00000000    
  0.65457096159619499       0.18091642312372991        0.00000000    
  0.58985899138928632       0.20390780918664522        0.00000000    
  0.51807027049651377       0.22366817600334052        0.00000000    
  0.44053580552738281       0.24016688002240885        0.00000000    
  0.35807173177332569       0.25357114185900165        0.00000000    
  0.27187955842998407       0.26384941402445955        0.00000000    
  0.18279066896621368       0.27118622203241127        0.00000000    
   9.1872524096126104E-002  0.27551511792991845        0.00000000    
   0.0000000000000000       0.27699648661746534        0.00000000    
   0.0000000000000000       0.36888741101071004        0.00000000    
  -9.1529144346484403E-002  0.36702714720764440        0.00000000    
 -0.18219240352255062       0.36125688120589655        0.00000000    
 -0.27102120837051158       0.35169773262319853        0.00000000    
 -0.35721226313551657       0.33810733400079207        0.00000000    
 -0.43966051782216109       0.32054429835275849        0.00000000    
 -0.51758656541152193       0.29875255064362238        0.00000000    
 -0.58973086553337983       0.27275773447467944        0.00000000    
 -0.65531015793603142       0.24235903808502357        0.00000000    
 -0.71292291660315588       0.20760769012563235        0.00000000    
 -0.76177993080120610       0.16846185476676906        0.00000000    
 -0.80040249539277752       0.12508837708939341        0.00000000    
 -0.82803937223667134        7.7736780291760760E-002   0.00000000    
 -0.84327684296523941        2.6800387994032206E-002   0.00000000    
 -0.84551113843311387       -2.7049674706099716E-002   0.00000000    
 -0.83362583982424332       -8.3095396495163287E-002   0.00000000    
 -0.80734232014791707      -0.14017835627827713        0.00000000    
 -0.76613727405680487      -0.19722394153272782        0.00000000    
 -0.71027091094439521      -0.25266023739049831        0.00000000    
 -0.64008656655747720      -0.30514074025165389        0.00000000    
 -0.55656438180354095      -0.35292976608630638        0.00000000    
 -0.46104146200128071      -0.39462418082079609        0.00000000    
 -0.35528432897005019      -0.42869802309989891        0.00000000    
 -0.24151121819735347      -0.45399718366400887        0.00000000    
 -0.12216533046496923      -0.46956807676284101        0.00000000    
   4.5357778629438731E-009 -0.47481582891016050        0.00000000    
  0.12216533939431422      -0.46956807558627173        0.00000000    
  0.24151122693168633      -0.45399718176324294        0.00000000    
  0.35528433745560933      -0.42869802080735003        0.00000000    
  0.46104147004535323      -0.39462417837266045        0.00000000    
  0.55656438922170803      -0.35292976342292248        0.00000000    
  0.64008657334758567      -0.30514073750456666        0.00000000    
  0.71027091697031208      -0.25266023471837407        0.00000000    
  0.76613727898095318      -0.19722393916013928        0.00000000    
  0.80734232480315704      -0.14017835403453044        0.00000000    
  0.83362584438569642       -8.3095394932318864E-002   0.00000000    
  0.84551114275051065       -2.7049672885222333E-002   0.00000000    
  0.84327684660666669        2.6800389571871652E-002   0.00000000    
  0.82803937531327754        7.7736781504829461E-002   0.00000000    
  0.80040249807747355       0.12508837832468594        0.00000000    
  0.76177993320077630       0.16846185581916198        0.00000000    
  0.71292291895894100       0.20760769116849379        0.00000000    
  0.65531016049725654       0.24235903890005403        0.00000000    
  0.58973086779065864       0.27275773555212601        0.00000000    
  0.51758656762654764       0.29875255152627828        0.00000000    
  0.43966051991813915       0.32054429914433291        0.00000000    
  0.35721226454805821       0.33810733499756634        0.00000000    
  0.27102120907031868       0.35169773360524059        0.00000000    
  0.18219240383904442       0.36125688175444470        0.00000000    
   9.1529144493832343E-002  0.36702714741286491        0.00000000    
   0.0000000000000000       0.36888741095186295        0.00000000    
   0.0000000000000000       0.46042429670252638        0.00000000    
  -9.1015183131053598E-002  0.45803581318028641        0.00000000    
 -0.18117140380959540       0.45106891908793167        0.00000000    
 -0.26969708239797319       0.43924140168216441        0.00000000    
 -0.35560326803919251       0.42266212829138883        0.00000000    
 -0.43816072339274920       0.40099643606064400        0.00000000    
 -0.51621570799751570       0.37428266615110628        0.00000000    
 -0.58903922739628800       0.34219665804895083        0.00000000    
 -0.65529555706124931       0.30475695482850607        0.00000000    
 -0.71422677448327443       0.26175496581607383        0.00000000    
 -0.76433450361014232       0.21328053707246075        0.00000000    
 -0.80483470445788674       0.15939367259842080        0.00000000    
 -0.83415303841990429       0.10038790595926922        0.00000000    
 -0.85154227579696096        3.6777178208468236E-002   0.00000000    
 -0.85554186326559090       -3.0791376478413204E-002   0.00000000    
 -0.84558892998500113      -0.10119072385945398        0.00000000    
 -0.82064197407063788      -0.17331230417404356        0.00000000    
 -0.78054873215634357      -0.24538708403214446        0.00000000    
 -0.72505218372061342      -0.31585881122854509        0.00000000    
 -0.65465877822468899      -0.38251872354554622        0.00000000    
 -0.57018035653196364      -0.44355119863429199        0.00000000    
 -0.47295772359188437      -0.49674711237485153        0.00000000    
 -0.36490910846918823      -0.54037965269257782        0.00000000    
 -0.24822248266978980      -0.57277410490430725        0.00000000    
 -0.12564197104662303      -0.59271637002566391        0.00000000    
   4.3826481178722469E-009 -0.59947366166308635        0.00000000    
  0.12564197976822203      -0.59271636866318655        0.00000000    
  0.24822249138124486      -0.57277410298429277        0.00000000    
  0.36490911708156903      -0.54037965007142930        0.00000000    
  0.47295773159577270      -0.49674710920533766        0.00000000    
  0.57018036368365488      -0.44355119521418335        0.00000000    
  0.65465878448640402      -0.38251872003714876        0.00000000    
  0.72505218936887228      -0.31585880794008309        0.00000000    
  0.78054873774165623      -0.24538708111117799        0.00000000    
  0.82064197910012726      -0.17331230165394318        0.00000000    
  0.84558893447536954      -0.10119072194005509        0.00000000    
  0.85554186727070314       -3.0791374284778038E-002   0.00000000    
  0.85154227937188798        3.6777180519705174E-002   0.00000000    
  0.83415304153809111       0.10038790746050150        0.00000000    
  0.80483470762202325       0.15939367389151066        0.00000000    
  0.76433450661884428       0.21328053850761622        0.00000000    
  0.71422677746748120       0.26175496654445346        0.00000000    
  0.65529555993903366       0.30475695585900053        0.00000000    
  0.58903923027646077       0.34219665921249065        0.00000000    
  0.51621571092365315       0.37428266694395718        0.00000000    
  0.43816072579445881       0.40099643758549874        0.00000000    
  0.35560326971781697       0.42266212996140357        0.00000000    
  0.26969708356069461       0.43924140321960442        0.00000000    
  0.18117140438736348       0.45106892004934795        0.00000000    
   9.1015183309671344E-002  0.45803581354093453        0.00000000    
   0.0000000000000000       0.46042429681421693        0.00000000    
   0.0000000000000000       0.55117646193651770        0.00000000    
  -9.0212125173480831E-002  0.54851211964561342        0.00000000    
 -0.17968200533573228       0.54021987659922843        0.00000000    
 -0.26755078266514465       0.52648606285899435        0.00000000    
 -0.35314461148136672       0.50691864356687399        0.00000000    
 -0.43544276373385132       0.48159668965009478        0.00000000    
 -0.51378987128134934       0.45008566468658368        0.00000000    
 -0.58696475975042706       0.41239322623950980        0.00000000    
 -0.65428253476394138       0.36813564839263990        0.00000000    
 -0.71430144366027026       0.31732755414727548        0.00000000    
 -0.76627329251530940       0.25978868005581285        0.00000000    
 -0.80856126408284001       0.19567485348352223        0.00000000    
 -0.84036225153976474       0.12522719530496790        0.00000000    
 -0.85996288456770120        4.8928905849869621E-002   0.00000000    
 -0.86659717605631947       -3.2308081504574156E-002   0.00000000    
 -0.85873974431306777      -0.11748324270387440        0.00000000    
 -0.83586609107238707      -0.20483925636159669        0.00000000    
 -0.79705411691542594      -0.29276421243043038        0.00000000    
 -0.74230989046939466      -0.37872132512477119        0.00000000    
 -0.67176503284733202      -0.46059334272816260        0.00000000    
 -0.58623372219283243      -0.53548518425287850        0.00000000    
 -0.48715581655452661      -0.60111253995407199        0.00000000    
 -0.37630266465398793      -0.65491486858426096        0.00000000    
 -0.25628307417097373      -0.69494398321088402        0.00000000    
 -0.12976242791107415      -0.71964652848410093        0.00000000    
   4.4025670448419349E-009 -0.72794679035086574        0.00000000    
  0.12976243660254536      -0.71964652696426301        0.00000000    
  0.25628308264942939      -0.69494398122506917        0.00000000    
  0.37630267261345607      -0.65491486541085098        0.00000000    
  0.48715582374120181      -0.60111253595553582        0.00000000    
  0.58623372868306045      -0.53548518011314661        0.00000000    
  0.67176503883648286      -0.46059333854833473        0.00000000    
  0.74230989614230858      -0.37872132157804533        0.00000000    
  0.79705412208835269      -0.29276420920479368        0.00000000    
  0.83586609612476104      -0.20483925346979004        0.00000000    
  0.85873974884873405      -0.11748324010035285        0.00000000    
  0.86659717983617168       -3.2308078753991921E-002   0.00000000    
  0.85996288821309552        4.8928908168802986E-002   0.00000000    
  0.84036225532591802       0.12522719711448538        0.00000000    
  0.80856126731911615       0.19567485497225426        0.00000000    
  0.76627329590207083       0.25978868130027555        0.00000000    
  0.71430144692631925       0.31732755521155526        0.00000000    
  0.65428253782822976       0.36813564939541682        0.00000000    
  0.58696476300092315       0.41239322724217037        0.00000000    
  0.51378987405763421       0.45008566606855976        0.00000000    
  0.43544276600064225       0.48159669161974544        0.00000000    
  0.35314461317447488       0.50691864608885973        0.00000000    
  0.26755078350882766       0.52648606490979166        0.00000000    
  0.17968200589611000       0.54021987791554549        0.00000000    
   9.0212125625256948E-002  0.54851212015911199        0.00000000    
   0.0000000000000000       0.55117646252575081        0.00000000    
   0.0000000000000000       0.64108471405437062        0.00000000    
  -8.9089803000202306E-002  0.63790689848615845        0.00000000    
 -0.17745888825972442       0.62866516578788778        0.00000000    
 -0.26448563702279465       0.61293740182984224        0.00000000    
 -0.34930003522269776       0.59087663314266092        0.00000000    
 -0.43132735532911698       0.56196527288273945        0.00000000    
 -0.50949792114996573       0.52623585436277476        0.00000000    
 -0.58322713768833900       0.48314823949248958        0.00000000    
 -0.65119807371376470       0.43267044279947497        0.00000000    
 -0.71275760739646687       0.37437229679672018        0.00000000    
 -0.76631291456481965       0.30827218619545560        0.00000000    
 -0.81109975146503621       0.23426724594478743        0.00000000    
 -0.84528220018007461       0.15261932702084516        0.00000000    
 -0.86800320924832763        6.3859501192730012E-002   0.00000000    
 -0.87735476341118135       -3.1251748748956816E-002   0.00000000    
 -0.87252863792977564      -0.13122205354390229        0.00000000    
 -0.85193265653060579      -0.23456900383163898        0.00000000    
 -0.81509617129692913      -0.33868185136206935        0.00000000    
 -0.76132137061721616      -0.44132164324830131        0.00000000    
 -0.69083380171489872      -0.53902438413009701        0.00000000    
 -0.60436081521397045      -0.62905737573582821        0.00000000    
 -0.50310627067076485      -0.70787173685866467        0.00000000    
 -0.38934592862615536      -0.77276810598502155        0.00000000    
 -0.26535609639501689      -0.82109911048833795        0.00000000    
 -0.13450845641994807      -0.85085863060442246        0.00000000    
   4.1209096608633409E-009 -0.86100452480215328        0.00000000    
  0.13450846480053391      -0.85085862910968824        0.00000000    
  0.26535610448639829      -0.82109910797519858        0.00000000    
  0.38934593637584658      -0.77276810247825811        0.00000000    
  0.50310627768327010      -0.70787173168350459        0.00000000    
  0.60436082112872036      -0.62905737097851755        0.00000000    
  0.69083380726471744      -0.53902437970183947        0.00000000    
  0.76132137588543258      -0.44132163935216590        0.00000000    
  0.81509617655305111      -0.33868184797375944        0.00000000    
  0.85193266122337052      -0.23456900041859549        0.00000000    
  0.87252864225313775      -0.13122205057550673        0.00000000    
  0.87735476792306799       -3.1251745795959636E-002   0.00000000    
  0.86800321339895858        6.3859503804962359E-002   0.00000000    
  0.84528220372838636       0.15261932899862415        0.00000000    
  0.81109975526236389       0.23426724756611936        0.00000000    
  0.76631291814794256       0.30827218737103740        0.00000000    
  0.71275761097625834       0.37437229805392469        0.00000000    
  0.65119807711805899       0.43267044398658400        0.00000000    
  0.58322714027475953       0.48314824094248310        0.00000000    
  0.50949792318065457       0.52623585632736036        0.00000000    
  0.43132735698249935       0.56196527515658035        0.00000000    
  0.34930003645978297       0.59087663635043586        0.00000000    
  0.26448563808933678       0.61293740421481901        0.00000000    
  0.17745888921418781       0.62866516716540888        0.00000000    
   8.9089803341438720E-002  0.63790689966028047        0.00000000    
   0.0000000000000000       0.64108471477599260        0.00000000    
   0.0000000000000000       0.72945591772077711        0.00000000    
  -8.7505315169537023E-002  0.72613185543422898        0.00000000    
 -0.17443121444480636       0.71573623553811705        0.00000000    
 -0.26006659148962408       0.69852949970736322        0.00000000    
 -0.34391227319992312       0.67394565614922630        0.00000000    
 -0.42507187652081602       0.64208421357642920        0.00000000    
 -0.50306985572293661       0.60228649754874253        0.00000000    
 -0.57676384681287085       0.55452184170676033        0.00000000    
 -0.64563387200657374       0.49813883758564387        0.00000000    
 -0.70822656853318067       0.43305716649625947        0.00000000    
 -0.76390054651568540       0.35881763336559186        0.00000000    
 -0.81084645068586703       0.27545556960127221        0.00000000    
 -0.84824535713681581       0.18301338519966756        0.00000000    
 -0.87397715090613037        8.1919270080684128E-002   0.00000000    
 -0.88708679156846104       -2.6849302100703229E-002   0.00000000    
 -0.88540792929296175      -0.14212847012561214        0.00000000    