 <VTKFile type="UnstructuredGrid" version="0.1" byte_order="BigEndian">
 <UnstructuredGrid>
 <Piece NumberOfPoints="        2601 " NumberOfCells="        2500 ">
 <PointData Scalars="scalars">
 <DataArray type="Float32" NumberOfComponents="3" Name="Velocity" Format="ascii">
   0.0000000000000000        0.0000000000000000        0.00000000    
 -0.12564824339503683        0.0000000000000000        0.00000000    
 -0.25087283767943824        0.0000000000000000        0.00000000    
 -0.37523595270999022        0.0000000000000000        0.00000000    
 -0.49820826366935628        0.0000000000000000        0.00000000    
 -0.61920110918301374        0.0000000000000000        0.00000000    
 -0.73745826188018615        0.0000000000000000        0.00000000    
 -0.85206843095040341        0.0000000000000000        0.00000000    
 -0.96191392862635883        0.0000000000000000        0.00000000    
  -1.0655446277952496        0.0000000000000000        0.00000000    
  -1.1613393940745338        0.0000000000000000        0.00000000    
  -1.2470701168579987        0.0000000000000000        0.00000000    
  -1.3205119003764993        0.0000000000000000        0.00000000    
  -1.3784884614252810        0.0000000000000000        0.00000000    
  -1.4182369318051711        0.0000000000000000        0.00000000    
  -1.4357508885888881        0.0000000000000000        0.00000000    
  -1.4281327187100612        0.0000000000000000        0.00000000    
  -1.3913190104184661        0.0000000000000000        0.00000000    
  -1.3230972763611439        0.0000000000000000        0.00000000    
  -1.2210450533190502        0.0000000000000000        0.00000000    
  -1.0847736712792289        0.0000000000000000        0.00000000    
 -0.91561455286049587        0.0000000000000000        0.00000000    
 -0.71618328798845932        0.0000000000000000        0.00000000    
 -0.49247937158566407        0.0000000000000000        0.00000000    
 -0.25072336519469213        0.0000000000000000        0.00000000    
   8.4611224727071093E-009   0.0000000000000000        0.00000000    
  0.25072338194941973        0.0000000000000000        0.00000000    
  0.49247938789027290        0.0000000000000000        0.00000000    
  0.71618330364310467        0.0000000000000000        0.00000000    
  0.91561456799883989        0.0000000000000000        0.00000000    
   1.0847736858155277        0.0000000000000000        0.00000000    
   1.2210450679168110        0.0000000000000000        0.00000000    
   1.3230972907104366        0.0000000000000000        0.00000000    
   1.3913190241386872        0.0000000000000000        0.00000000    
   1.4281327322397015        0.0000000000000000        0.00000000    
   1.4357509017511341        0.0000000000000000        0.00000000    
   1.4182369447438627        0.0000000000000000        0.00000000    
   1.3784884735260343        0.0000000000000000        0.00000000    
   1.3205119115495509        0.0000000000000000        0.00000000    
   1.2470701278174090        0.0000000000000000        0.00000000    
   1.1613394049556049        0.0000000000000000        0.00000000    
   1.0655446377713076        0.0000000000000000        0.00000000    
  0.96191393693588612        0.0000000000000000        0.00000000    
  0.85206843832914692        0.0000000000000000        0.00000000    
  0.73745826808757453        0.0000000000000000        0.00000000    
  0.61920111445128490        0.0000000000000000        0.00000000    
  0.49820826791111017        0.0000000000000000        0.00000000    
  0.37523595601523091        0.0000000000000000        0.00000000    
  0.25087284011936062        0.0000000000000000        0.00000000    
  0.12564824462849988        0.0000000000000000        0.00000000    
   0.0000000000000000        0.0000000000000000        0.00000000    
   0.0000000000000000       0.12538230032874528        0.00000000    
 -0.12491202590958055       0.12517946421305062        0.00000000    
 -0.24941261907142120       0.12454721809264627        0.00000000    
 -0.37304290221289099       0.12344767418136784        0.00000000    
 -0.49531577961378831       0.12179900712958883        0.00000000    
 -0.61560898978256251       0.11948853995062429        0.00000000    
 -0.73321062702373874       0.11637173940691216        0.00000000    
 -0.84721038299207996       0.11223967262789654        0.00000000    
 -0.95648026189401147       0.10687718805433953        0.00000000    
  -1.0596825725046362        9.9957302431094033E-002   0.00000000    
  -1.1550399241809202        9.1196292317280131E-002   0.00000000    
  -1.2406540269254627        8.0150005510145242E-002   0.00000000    
  -1.3138690218290137        6.6508240173634922E-002   0.00000000    
  -1.3721797158986022        4.9780476524825763E-002   0.00000000    
  -1.4119668484796937        2.9756581811016300E-002   0.00000000    
  -1.4303266338246399        6.1186088362259758E-003   0.00000000    
  -1.4230285108447647       -2.1033460436738826E-002   0.00000000    
  -1.3873935094488039       -5.1413815768470254E-002   0.00000000    
  -1.3197832142628829       -8.4416787913565758E-002   0.00000000    
  -1.2187395758370716      -0.11867765603631293        0.00000000    
  -1.0833442986332791      -0.15298759347148966        0.00000000    
 -0.91452156533059314      -0.18499285572938026        0.00000000    
 -0.71599627287735035      -0.21296230549735728        0.00000000    
 -0.49206696781660281      -0.23466952493525722        0.00000000    
 -0.25081385851453114      -0.24833820341322588        0.00000000    
   8.8871059311657066E-009 -0.25319765212946566        0.00000000    
  0.25081387590484461      -0.24833820286181038        0.00000000    
  0.49206698428059981      -0.23466952411023667        0.00000000    
  0.71599628871674792      -0.21296230504781510        0.00000000    
  0.91452158080206036      -0.18499285529469348        0.00000000    
   1.0833443137330285      -0.15298759293241287        0.00000000    
   1.2187395901005829      -0.11867765580061355        0.00000000    
   1.3197832281426922       -8.4416787517095748E-002   0.00000000    
   1.3873935234219972       -5.1413815629251534E-002   0.00000000    
   1.4230285246375947       -2.1033460205014169E-002   0.00000000    
   1.4303266473435410        6.1186092458232998E-003   0.00000000    
   1.4119668613115506        2.9756582312016812E-002   0.00000000    
   1.3721797280789640        4.9780477513257988E-002   0.00000000    
   1.3138690335733461        6.6508240548932229E-002   0.00000000    
   1.2406540381228248        8.0150005895458232E-002   0.00000000    
   1.1550399342406232        9.1196293147964277E-002   0.00000000    
   1.0596825814381996        9.9957303631562175E-002   0.00000000    
  0.95648027024140414       0.10687718910657110        0.00000000    
  0.84721039014569677       0.11223967370022317        0.00000000    
  0.73321063323217683       0.11637174045111814        0.00000000    
  0.61560899503535293       0.11948854080118208        0.00000000    
  0.49531578414261240       0.12179900802951378        0.00000000    
  0.37304290579978783       0.12344767515988374        0.00000000    
  0.24941262140340698       0.12454721923435846        0.00000000    
  0.12491202711201138       0.12517946540735170        0.00000000    
   0.0000000000000000       0.12538230157033706        0.00000000    
   0.0000000000000000       0.24930443474930203        0.00000000    
 -0.12272144091532075       0.24889223035490976        0.00000000    
 -0.24503057769814274       0.24764561526276826        0.00000000    
 -0.36650932321587071       0.24545973828432996        0.00000000    
 -0.48664150514002835       0.24219343383493630        0.00000000    
 -0.60487794518621851       0.23762519340210622        0.00000000    
 -0.72048725909961475       0.23144746510074737        0.00000000    
 -0.83262955493633461       0.22330742433272976        0.00000000    
 -0.94023242693807974       0.21268360997665398        0.00000000    
  -1.0419572321861408       0.19907941574183952        0.00000000    
  -1.1362503084141260       0.18172602236660196        0.00000000    
  -1.2210263266379973       0.16001180747350391        0.00000000    
  -1.2941310586317596       0.13296757104767867        0.00000000    
  -1.3525153878415275       0.10001756930603124        0.00000000    
  -1.3934467934279362        6.0239421193745910E-002   0.00000000    
  -1.4129058346339132        1.3455983282053229E-002   0.00000000    
  -1.4079921480172417       -4.0581264781530284E-002   0.00000000    
  -1.3743004758666619      -0.10119131296326798        0.00000000    
  -1.3096551412755784      -0.16689355683061488        0.00000000    
  -1.2109988499398403      -0.23589946139055085        0.00000000    
  -1.0778989866623812      -0.30425958123582481        0.00000000    
 -0.91137667156835145      -0.36906457669460113        0.00000000    
 -0.71368032404469639      -0.42511089137111491        0.00000000    
 -0.49137891348631896      -0.46875032725234234        0.00000000    
 -0.25019578340887566      -0.49669231668021463        0.00000000    
   8.9538382158994387E-009 -0.50585187696979939        0.00000000    
  0.25019580134372033      -0.49669231577206868        0.00000000    
  0.49137893122291576      -0.46875032565948621        0.00000000    
  0.71368034084790499      -0.42511089013142112        0.00000000    
  0.91137668736889776      -0.36906457567947576        0.00000000    
   1.0778990018129986      -0.30425958025553945        0.00000000    
   1.2109988648997425      -0.23589946056910632        0.00000000    
   1.3096551556595402      -0.16689355606024772        0.00000000    
   1.3743004895449942      -0.10119131258570069        0.00000000    
   1.4079921623488885       -4.0581265261105878E-002   0.00000000    
   1.4129058489948794        1.3455984647559979E-002   0.00000000    
   1.3934468068346213        6.0239422380161875E-002   0.00000000    
   1.3525154007829605       0.10001757072579404        0.00000000    
   1.2941310708315623       0.13296757216930502        0.00000000    
   1.2210263372942818       0.16001180920297503        0.00000000    
   1.1362503176704655       0.18172602439073121        0.00000000    
   1.0419572408169138       0.19907941750056851        0.00000000    
  0.94023243449813942       0.21268361212750692        0.00000000    
  0.83262956162022517       0.22330742637637827        0.00000000    
  0.72048726504060212       0.23144746686171275        0.00000000    
  0.60487795077086026       0.23762519484789663        0.00000000    
  0.48664151002582517       0.24219343556243883        0.00000000    
  0.36650932666817565       0.24545974081068778        0.00000000    
  0.24503057983929577       0.24764561742270036        0.00000000    
  0.12272144207843884       0.24889223263857993        0.00000000    
   0.0000000000000000       0.24930443726707277        0.00000000    
   0.0000000000000000       0.37030340038494342        0.00000000    
 -0.11909170510673066       0.36970778335154753        0.00000000    
 -0.23779768700289794       0.36784655318831699        0.00000000    
 -0.35567836069628833       0.36461959108977532        0.00000000    
 -0.47229916908953301       0.35978794174909273        0.00000000    
 -0.58706970920187118       0.35303903455984703        0.00000000    
 -0.69938079655054086       0.34395539220045146        0.00000000    
 -0.80838514318896915       0.33194750436375087        0.00000000    
 -0.91313054157718165       0.31639316219110475        0.00000000    
  -1.0123867905567872       0.29635227629119298        0.00000000    
  -1.1046314570205309       0.27099225925380410        0.00000000    
  -1.1881079015440490       0.23899938361541023        0.00000000    
  -1.2604495265418283       0.19942769727501916        0.00000000    
  -1.3192595124688598       0.15075309781461899        0.00000000    
  -1.3611020385708965        9.2279157862882211E-002   0.00000000    
  -1.3830528026043101        2.2827378140246785E-002   0.00000000    
  -1.3806249296271289       -5.7292900245368858E-002   0.00000000    
  -1.3511556486004437      -0.14763932017523076        0.00000000    
  -1.2899471792837667      -0.24629805130621296        0.00000000    
  -1.1957868099885780      -0.34931033438708320        0.00000000    
  -1.0664642303606520      -0.45326986670084890        0.00000000    
 -0.90273218155028245      -0.55030737888063364        0.00000000    
 -0.70862365298348040      -0.63567169688508141        0.00000000    
 -0.48731417194549176      -0.70179915058788522        0.00000000    
 -0.24886423554261736      -0.74327530194542424        0.00000000    
   9.3339075050864871E-009 -0.75832767305460336        0.00000000    
  0.24886425391688488      -0.74327530077089909        0.00000000    
  0.48731418979583924      -0.70179914853923819        0.00000000    
  0.70862367034634699      -0.63567169468030960        0.00000000    
  0.90273219833445761      -0.55030737724923551        0.00000000    
   1.0664642464218734      -0.45326986496395349        0.00000000    
   1.1957868249597816      -0.34931033304151604        0.00000000    
   1.2899471937167029      -0.24629804994576046        0.00000000    
   1.3511556632931954      -0.14763931994193380        0.00000000    
   1.3806249432485573       -5.7292900162666471E-002   0.00000000    
   1.3830528159062501        2.2827379233644609E-002   0.00000000    
   1.3611020523819679        9.2279159766556207E-002   0.00000000    
   1.3192595251093839       0.15075310015292259        0.00000000    
   1.2604495376887070       0.19942769971337929        0.00000000    
   1.1881079116899873       0.23899938657260450        0.00000000    
   1.1046314662963179       0.27099226232030615        0.00000000    
   1.0123867982293822       0.29635227923630758        0.00000000    
  0.91313054873911048       0.31639316473694962        0.00000000    
  0.80838514993659816       0.33194750730287587        0.00000000    
  0.69938080253764479       0.34395539456936763        0.00000000    
  0.58706971429114574       0.35303903665186021        0.00000000    
  0.47229917323404674       0.35978794447397661        0.00000000    
  0.35567836417550236       0.36461959471754424        0.00000000    
  0.23779768947727328       0.36784655656282766        0.00000000    
  0.11909170623809197       0.36970778674168703        0.00000000    
   0.0000000000000000       0.37030340409072332        0.00000000    
   0.0000000000000000       0.48699660269578854        0.00000000    
 -0.11408232425211035       0.48618992223892055        0.00000000    
 -0.22777638880383791       0.48376577224554029        0.00000000    
 -0.34071138623659902       0.47951735394071515        0.00000000    
 -0.45239869921726478       0.47319961000429200        0.00000000    
 -0.56239034766282570       0.46439086313358446        0.00000000    
 -0.67001208597510942       0.45253769573491437        0.00000000    
 -0.77461460452451147       0.43697337019212362        0.00000000    
 -0.87523708717917892       0.41673647886645904        0.00000000    
 -0.97085043283179817       0.39087985252713459        0.00000000    
  -1.0600773077055614       0.35793751885980291        0.00000000    
  -1.1412476717969691       0.31670222290593253        0.00000000    
  -1.2124054833858648       0.26522557979772982        0.00000000    
  -1.2709061624783400       0.20226716012048135        0.00000000    
  -1.3140743188992041       0.12577705131335384        0.00000000    
  -1.3380283543958014        3.5235550714306160E-002   0.00000000    
  -1.3396439285277195       -7.0512113440383051E-002   0.00000000    
  -1.3137026122684290      -0.18982945409246618        0.00000000    
  -1.2583683825282097      -0.32064937602706950        0.00000000    
  -1.1683492360231791      -0.45913729425658251        0.00000000    
  -1.0442394933067585      -0.59687400798715318        0.00000000    
 -0.88562327771100935      -0.72905029059241888        0.00000000    
 -0.69407091528650744      -0.84258847284036942        0.00000000    
 -0.47901627967363747      -0.93124529622509433        0.00000000    
 -0.24327393710773809      -0.98802024454715554        0.00000000    
   9.7434606228399468E-009  -1.0057197348060001        0.00000000    
  0.24327395641231467      -0.98802024289673818        0.00000000    
  0.47901629872877866      -0.93124529387898269        0.00000000    
  0.69407093386798757      -0.84258846997192138        0.00000000    
  0.88562329514726867      -0.72905028790078819        0.00000000    
   1.0442395099709119      -0.59687400581543026        0.00000000    
   1.1683492523417958      -0.45913729191028851        0.00000000    
   1.2583683979653260      -0.32064937424757617        0.00000000    
   1.3137026260790898      -0.18982945291156969        0.00000000    
   1.3396439415140982       -7.0512112409675490E-002   0.00000000    
   1.3380283667377804        3.5235551823586564E-002   0.00000000    
   1.3140743302354982       0.12577705369769746        0.00000000    
   1.2709061736642397       0.20226716329905711        0.00000000    
   1.2124054939562130       0.26522558350501307        0.00000000    
   1.1412476810358945       0.31670222692656619        0.00000000    
   1.0600773158206118       0.35793752285689040        0.00000000    
  0.97085044075264959       0.39087985633905420        0.00000000    
  0.87523709435646968       0.41673648179972450        0.00000000    
  0.77461461125793307       0.43697337360199573        0.00000000    
  0.67001209213070279       0.45253769897143598        0.00000000    
  0.56239035277123639       0.46439086630300258        0.00000000    
  0.45239870334440646       0.47319961357779972        0.00000000    
  0.34071138947832702       0.47951735827057362        0.00000000    
  0.22777639127646895       0.48376577669189597        0.00000000    
  0.11408232564657463       0.48618992697839480        0.00000000    
   0.0000000000000000       0.48699660757805813        0.00000000    
   0.0000000000000000       0.59798673186467521        0.00000000    
 -0.10774376397629705       0.59702713272036845        0.00000000    
 -0.21513378034156469       0.59401389376324309        0.00000000    
 -0.32174980928332958       0.58882150923231302        0.00000000    
 -0.42723547519301647       0.58106968300353978        0.00000000    
 -0.53103754111147827       0.57031575255925482        0.00000000    
 -0.63271251571689657       0.55591076551302421        0.00000000    
 -0.73149918371573930       0.53699073112140527        0.00000000    
 -0.82674601269037828       0.51258967112953446        0.00000000    
 -0.91738519877004165       0.48128043048886832        0.00000000    
  -1.0023601197920355       0.44173997174671814        0.00000000    
  -1.0801492912225219       0.39186053624826273        0.00000000    
  -1.1489569436249605       0.33003395649769085        0.00000000    
  -1.2065893480194474       0.25359308722551410        0.00000000    
  -1.2500582367439859       0.16108938367204692        0.00000000    
  -1.2762374724587988        5.0057696295658004E-002   0.00000000    
  -1.2806897278772587       -7.9265230289086372E-002   0.00000000    
  -1.2600017896404172      -0.22770440236069944        0.00000000    
  -1.2075740208900032      -0.39053524594524686        0.00000000    
  -1.1243148136268155      -0.56252860947085581        0.00000000    
  -1.0038564553791345      -0.73804963586577965        0.00000000    
 -0.84978019618469947      -0.90056599079771205        0.00000000    
 -0.66679197281711178       -1.0456122235005365        0.00000000    
 -0.45491300581974098       -1.1551540205847117        0.00000000    
 -0.23283124375960543       -1.2219345057767850        0.00000000    
   1.0583868927453597E-008  -1.2479095580782424        0.00000000    
  0.23283126480723210       -1.2219345038239118        0.00000000    
  0.45491302613113105       -1.1551540175553827        0.00000000    
  0.66679199217715224       -1.0456122198902953        0.00000000    
  0.84978021539660142      -0.90056598755451867        0.00000000    
   1.0038564740938121      -0.73804963297628789        0.00000000    
   1.1243148310416375      -0.56252860619693945        0.00000000    
   1.2075740368546084      -0.39053524276165896        0.00000000    
   1.2600018044992829      -0.22770439985170313        0.00000000    
   1.2806897412864757       -7.9265228312548716E-002   0.00000000    
   1.2762374843422213        5.0057698629302476E-002   0.00000000    
   1.2500582477914042       0.16108938667371467        0.00000000    
   1.2065893580751281       0.25359309092889615        0.00000000    
   1.1489569527617074       0.33003396121465306        0.00000000    
   1.0801492997606772       0.39186054118923042        0.00000000    
   1.0023601278347749       0.44173997644276108        0.00000000    
  0.91738520636942766       0.48128043423938455        0.00000000    
  0.82674602011767584       0.51258967503985153        0.00000000    
  0.73149919031850952       0.53699073482262094        0.00000000    
  0.63271252174028891       0.55591076961540720        0.00000000    
  0.53103754603059905       0.57031575701426396        0.00000000    
  0.42723547878612000       0.58106968759874233        0.00000000    
  0.32174981215519849       0.58882151414712536        0.00000000    
  0.21513378234285907       0.59401389926431503        0.00000000    
  0.10774376486933698       0.59702713859154655        0.00000000    
   0.0000000000000000       0.59798673790274437        0.00000000    
   0.0000000000000000       0.70206689420377044        0.00000000    
 -0.10019208167475420       0.70088400735505541        0.00000000    
 -0.20000883854111784       0.69736498338908681        0.00000000    
 -0.29912464107196474       0.69120344146358292        0.00000000    
 -0.39706431108704315       0.68211427617830356        0.00000000    
 -0.49349748470038052       0.66950758708071123        0.00000000    
 -0.58779549542696197       0.65269310290640603        0.00000000    
 -0.67955195133503932       0.63075270216878998        0.00000000    
 -0.76791725596494653       0.60244101583234977        0.00000000    
 -0.85229102492668019       0.56644322009172732        0.00000000    
 -0.93149807953688690       0.52076033363523166        0.00000000    
  -1.0045059381732020       0.46363837641317640        0.00000000    
  -1.0696190801009211       0.39217807790217446        0.00000000    
  -1.1248768929735071       0.30434034521464348        0.00000000    
  -1.1677154635968618       0.19665074060370977        0.00000000    
  -1.1945925226088399        6.7553782933952589E-002   0.00000000    
  -1.2013914148083156       -8.5509029425548500E-002   0.00000000    
  -1.1832120640223704      -0.26032676102935348        0.00000000    
  -1.1360892253747006      -0.45746237568490800        0.00000000    
  -1.0502569935030117      -0.66469181025043522        0.00000000    
 -0.93601970880644403      -0.87058098408449613        0.00000000    
 -0.78552699510930757       -1.0726025352192912        0.00000000    
 -0.60412678644228723       -1.2379630427472275        0.00000000    
 -0.41296935214336083       -1.3658385496454688        0.00000000    
 -0.20259002386040659       -1.4437100191176968        0.00000000    
   1.1408031615829155E-008  -1.4615542936238908        0.00000000    
  0.20259004697546315       -1.4437100173437054        0.00000000    
  0.41296937472835227       -1.3658385451709538        0.00000000    
  0.60412680827948539       -1.2379630388830303        0.00000000    
  0.78552701628939148       -1.0726025314248036        0.00000000    
  0.93601972922791066      -0.87058098049045662        0.00000000    
   1.0502570128166220      -0.66469180527335558        0.00000000    
   1.1360892432973826      -0.45746237136333928        0.00000000    
   1.1832120807318294      -0.26032675733937499        0.00000000    
   1.2013914298596537       -8.5509025522225904E-002   0.00000000    
   1.1945925358771905        6.7553786649595049E-002   0.00000000    
   1.1677154752803964       0.19665074464419821        0.00000000    
   1.1248769036608994       0.30434034986708375        0.00000000    
   1.0696190898725131       0.39217808350481131        0.00000000    
   1.0045059472413140       0.46363838177054040        0.00000000    
  0.93149808810253687       0.52076033891275531        0.00000000    
  0.85229103296893727       0.56644322422750915        0.00000000    
  0.76791726354677547       0.60244101998991695        0.00000000    
  0.67955195809026403       0.63075270727388588        0.00000000    
  0.58779550044443130       0.65269310792204083        0.00000000    
  0.49349748886502098       0.66950759257956705        0.00000000    
  0.39706431470562131       0.68211428160173837        0.00000000    
  0.29912464364174174       0.69120344732019900        0.00000000    
  0.20000884019101736       0.69736498973880601        0.00000000    
  0.10019208251911092       0.70088401429138214        0.00000000    
   0.0000000000000000       0.70206690091408641        0.00000000    
   0.0000000000000000       0.79798344354270290        0.00000000    
  -9.1520107814539106E-002  0.79668077904774348        0.00000000    
 -0.18269733193620544       0.79256332392894302        0.00000000    
 -0.27310480524449088       0.78552950747942851        0.00000000    
 -0.36244879371833300       0.77507299846222344        0.00000000    
 -0.45018096740653057       0.76071534081116088        0.00000000    
 -0.53601946582994131       0.74162298548621852        0.00000000    
 -0.61924949256956185       0.71681042763515179        0.00000000    
 -0.69954690377065520       0.68504712932297762        0.00000000    
 -0.77596449911718479       0.64462959144182774        0.00000000    
 -0.84801758147166573       0.59383521666499839        0.00000000    
 -0.91439723653635807       0.52995212078876375        0.00000000    
 -0.97413071090962811       0.45071205935504988        0.00000000    
  -1.0252419571902043       0.35217652714215913        0.00000000    
  -1.0653937170857044       0.23180598780445688        0.00000000    
  -1.0913600770326803        8.5243045709858523E-002   0.00000000    
  -1.0985040322004793       -8.9254361571515575E-002   0.00000000    
  -1.0800797233010411      -0.29318401615871026        0.00000000    
  -1.0322191988169083      -0.51958742156583193        0.00000000    
 -0.94984971038867061      -0.77076743913538392        0.00000000    
 -0.81402650688300859       -1.0145648092361816        0.00000000    
 -0.66559199663292123       -1.2275449191071099        0.00000000    
 -0.49967503826885612       -1.4303368318488148        0.00000000    
 -0.30598281696408342       -1.5583134318866727        0.00000000    
 -0.15235034025017619       -1.6152459779230617        0.00000000    
   1.3503423880158815E-008  -1.6449577606190398        0.00000000    
  0.15235036636113913       -1.6152459755521791        0.00000000    
  0.30598284263736858       -1.5583134270413048        0.00000000    
  0.49967506361668834       -1.4303368272822228        0.00000000    
  0.66559202080838498       -1.2275449141855372        0.00000000    
  0.81402652932247477       -1.0145648042746134        0.00000000    
  0.94984973140970719      -0.77076743299954886        0.00000000    
   1.0322192190206210      -0.51958741619476589        0.00000000    
   1.0800797417315755      -0.29318401053182841        0.00000000    
   1.0985040492833598       -8.9254356599322959E-002   0.00000000    
   1.0913600929451432        8.5243051310036094E-002   0.00000000    
   1.0653937310987658       0.23180599344462666        0.00000000    
   1.0252419693746564       0.35217653301966861        0.00000000    
  0.97413072190552386       0.45071206583697337        0.00000000    
  0.91439724658558441       0.52995212691699023        0.00000000    
  0.84801759102633611       0.59383522216867679        0.00000000    
  0.77596450794206007       0.64462959660464192        0.00000000    
  0.69954691117645351       0.68504713433301723        0.00000000    
  0.61924949894627856       0.71681043374345965        0.00000000    
  0.53601947157273599       0.74162299187031799        0.00000000    
  0.45018097196100865       0.76071534698269638        0.00000000    
  0.36244879730148094       0.77507300473036955        0.00000000    
  0.27310480783502339       0.78552951453274977        0.00000000    
  0.18269733351224265       0.79256333101632892        0.00000000    
   9.1520108757351851E-002  0.79668078668517017        0.00000000    
   0.0000000000000000       0.79798345133908710        0.00000000    
   0.0000000000000000       0.88483052690456643        0.00000000    
  -8.1912128134858764E-002  0.88326700365617716        0.00000000    
 -0.16342890240629859       0.87867216951039417        0.00000000    
 -0.24423698225822363       0.87063728630811188        0.00000000    
 -0.32383462979323552       0.85890792620172574        0.00000000    
 -0.40197184522062157       0.84275087163177465        0.00000000    
 -0.47800943279082342       0.82146460888711581        0.00000000    
 -0.55174453161678316       0.79393499629811293        0.00000000    
 -0.62235753048028453       0.75883403536212768        0.00000000    
 -0.68966100764298932       0.71456482011946576        0.00000000    
 -0.75257802572400545       0.65887114791037626        0.00000000    
 -0.81081295601763059       0.58953183110396379        0.00000000    
 -0.86284045799602327       0.50289437762296818        0.00000000    
 -0.90774403586741181       0.39601008082067640        0.00000000    
 -0.94300075568175112       0.26338195570110101        0.00000000    
 -0.96518601967631401       0.10181973742820692        0.00000000    