 <VTKFile type="UnstructuredGrid" version="0.1" byte_order="BigEndian">
 <UnstructuredGrid>
 <Piece NumberOfPoints="        2601 " NumberOfCells="        2500 ">
 <PointData Scalars="scalars">
 <DataArray type="Float32" NumberOfComponents="3" Name="Velocity" Format="ascii">
   0.0000000000000000        0.0000000000000000        0.00000000    
  -4.6103552758954058E-002   0.0000000000000000        0.00000000    
  -9.1569175283637352E-002   0.0000000000000000        0.00000000    
 -0.13573709859774544        0.0000000000000000        0.00000000    
 -0.17801217330355074        0.0000000000000000        0.00000000    
 -0.21773668931968096        0.0000000000000000        0.00000000    
 -0.25437896029115825        0.0000000000000000        0.00000000    
 -0.28731250750703047        0.0000000000000000        0.00000000    
 -0.31609182402990699        0.0000000000000000        0.00000000    
 -0.34015724817287163        0.0000000000000000        0.00000000    
 -0.35917534306227233        0.0000000000000000        0.00000000    
 -0.37269445160840198        0.0000000000000000        0.00000000    
 -0.38052159413237824        0.0000000000000000        0.00000000    
 -0.38235658736713174        0.0000000000000000        0.00000000    
 -0.37817487582582027        0.0000000000000000        0.00000000    
 -0.36786765017241646        0.0000000000000000        0.00000000    
 -0.35160125289791105        0.0000000000000000        0.00000000    
 -0.32948697607099325        0.0000000000000000        0.00000000    
 -0.30189262830741587        0.0000000000000000        0.00000000    
 -0.26915947203025670        0.0000000000000000        0.00000000    
 -0.23184923397303389        0.0000000000000000        0.00000000    
 -0.19051859347472250        0.0000000000000000        0.00000000    
 -0.14589348296073398        0.0000000000000000        0.00000000    
  -9.8705597162382294E-002   0.0000000000000000        0.00000000    
  -4.9793035072162289E-002   0.0000000000000000        0.00000000    
   9.6891643655511794E-009   0.0000000000000000        0.00000000    
   4.9793054415624420E-002   0.0000000000000000        0.00000000    
   9.8705616198537960E-002   0.0000000000000000        0.00000000    
  0.14589350170994861        0.0000000000000000        0.00000000    
  0.19051861161643210        0.0000000000000000        0.00000000    
  0.23184925142586993        0.0000000000000000        0.00000000    
  0.26915948882049612        0.0000000000000000        0.00000000    
  0.30189264438796770        0.0000000000000000        0.00000000    
  0.32948699117028463        0.0000000000000000        0.00000000    
  0.35160126703079148        0.0000000000000000        0.00000000    
  0.36786766351773215        0.0000000000000000        0.00000000    
  0.37817488828682849        0.0000000000000000        0.00000000    
  0.38235659904532254        0.0000000000000000        0.00000000    
  0.38052160496550808        0.0000000000000000        0.00000000    
  0.37269446155242081        0.0000000000000000        0.00000000    
  0.35917535198695011        0.0000000000000000        0.00000000    
  0.34015725603471741        0.0000000000000000        0.00000000    
  0.31609183084613840        0.0000000000000000        0.00000000    
  0.28731251339551334        0.0000000000000000        0.00000000    
  0.25437896530527865        0.0000000000000000        0.00000000    
  0.21773669333135870        0.0000000000000000        0.00000000    
  0.17801217645206116        0.0000000000000000        0.00000000    
  0.13573710098328598        0.0000000000000000        0.00000000    
   9.1569176893573079E-002   0.0000000000000000        0.00000000    
   4.6103553588840017E-002   0.0000000000000000        0.00000000    
   0.0000000000000000        0.0000000000000000        0.00000000    
   0.0000000000000000        4.6331658163120695E-002   0.00000000    
  -4.6231751719521451E-002   4.6005106256031186E-002   0.00000000    
  -9.1811582919634704E-002   4.5041807331425376E-002   0.00000000    
 -0.13612028915838228        4.3436281924761545E-002   0.00000000    
 -0.17849499777822639        4.1214960873896207E-002   0.00000000    
 -0.21836937357211955        3.8385390098292269E-002   0.00000000    
 -0.25509564005247620        3.4984606144281477E-002   0.00000000    
 -0.28818152880757691        3.1036288170711607E-002   0.00000000    
 -0.31702659652339904        2.6589553918186622E-002   0.00000000    
 -0.34123675868503661        2.1687489677399748E-002   0.00000000    
 -0.36029765437809746        1.6392957605925188E-002   0.00000000    
 -0.37394078635248923        1.0770738974514022E-002   0.00000000    
 -0.38178116256058159        4.8982351640721429E-003   0.00000000    
 -0.38370483196958599       -1.1381177991786474E-003   0.00000000    
 -0.37949934771296501       -7.2476239554048602E-003   0.00000000    
 -0.36923175470321956       -1.3325741351960119E-002   0.00000000    
 -0.35289822501321283       -1.9272732916009103E-002   0.00000000    
 -0.33076475269805250       -2.4973564174454056E-002   0.00000000    
 -0.30305700328825308       -3.0327081543725709E-002   0.00000000    
 -0.27024267082738285       -3.5218956297179527E-002   0.00000000    
 -0.23277545903696770       -3.9557043144735099E-002   0.00000000    
 -0.19130674402428069       -4.3240862391820588E-002   0.00000000    
 -0.14649061677568928       -4.6198925746421066E-002   0.00000000    
  -9.9120919168472280E-002  -4.8357208307385720E-002   0.00000000    
  -4.9999367381632666E-002  -4.9675456400040431E-002   0.00000000    
   9.7069534637556576E-009  -5.0115516373477463E-002   0.00000000    
   4.9999386697692806E-002  -4.9675456267327035E-002   0.00000000    
   9.9120938299489411E-002  -4.8357207947749357E-002   0.00000000    
  0.14649063546135724       -4.6198925373767130E-002   0.00000000    
  0.19130676226214302       -4.3240861709164309E-002   0.00000000    
  0.23277547659518438       -3.9557042458871962E-002   0.00000000    
  0.27024268765323700       -3.5218955588083460E-002   0.00000000    
  0.30305701927277623       -3.0327080701803070E-002   0.00000000    
  0.33076476786193793       -2.4973563214478176E-002   0.00000000    
  0.35289823922554403       -1.9272731958019682E-002   0.00000000    
  0.36923176796123863       -1.3325740568072730E-002   0.00000000    
  0.37949936021893077       -7.2476231029313118E-003   0.00000000    
  0.38370484364277441       -1.1381170360575247E-003   0.00000000    
  0.38178117338986362        4.8982360899185286E-003   0.00000000    
  0.37394079620944415        1.0770739910105706E-002   0.00000000    
  0.36029766319060796        1.6392958734118952E-002   0.00000000    
  0.34123676643496931        2.1687490674615804E-002   0.00000000    
  0.31702660328946702        2.6589554950449443E-002   0.00000000    
  0.28818153458780926        3.1036289052032696E-002   0.00000000    
  0.25509564487599407        3.4984607094037494E-002   0.00000000    
  0.21836937759229894        3.8385390954317124E-002   0.00000000    
  0.17849500104340549        4.1214961636038945E-002   0.00000000    
  0.13612029162781544        4.3436282721334894E-002   0.00000000    
   9.1811584572618385E-002   4.5041808126906210E-002   0.00000000    
   4.6231752540959542E-002   4.6005107072145550E-002   0.00000000    
   0.0000000000000000        4.6331658998330236E-002   0.00000000    
   0.0000000000000000        9.2904840815556000E-002   0.00000000    
  -4.6600323741338469E-002   9.2265397212148534E-002   0.00000000    
  -9.2562054167967575E-002   9.0324476066479323E-002   0.00000000    
 -0.13722326231302309        8.7124925485202953E-002   0.00000000    
 -0.17998828632083064        8.2667447607086372E-002   0.00000000    
 -0.22019456330566023        7.7014953511422388E-002   0.00000000    
 -0.25730880535526873        7.0196948232801468E-002   0.00000000    
 -0.29069622398990236        6.2298650013854553E-002   0.00000000    
 -0.31990774835652225        5.3385180173695423E-002   0.00000000    
 -0.34437192061878336        4.3567593322406964E-002   0.00000000    
 -0.36374953967738421        3.2952763561995627E-002   0.00000000    
 -0.37757462718436791        2.1680546728505775E-002   0.00000000    
 -0.38564685658154563        9.9024265509772211E-003   0.00000000    
 -0.38765123405133650       -2.2128694382064578E-003   0.00000000    
 -0.38355581394352090       -1.4472384529011229E-002   0.00000000    
 -0.37323934670405151       -2.6683649547422961E-002   0.00000000    
 -0.35686299051935538       -3.8623319811053075E-002   0.00000000    
 -0.33453102058753298       -5.0087029375013782E-002   0.00000000    
 -0.30661069543336039       -6.0840301383862427E-002   0.00000000    
 -0.27344403725014615       -7.0685338127704042E-002   0.00000000    
 -0.23559871961915499       -7.9401802278563902E-002   0.00000000    
 -0.19364077907414604       -8.6821370785032714E-002   0.00000000    
 -0.14830916061420252       -9.2764775398334762E-002   0.00000000    
 -0.10035237659166972       -9.7116452891975874E-002   0.00000000    
  -5.0627460139480752E-002  -9.9761292852060285E-002   0.00000000    
   9.7456203091394770E-009 -0.10065513978526015        0.00000000    
   5.0627479577408929E-002  -9.9761292568187623E-002   0.00000000    
  0.10035239583799439       -9.7116452306851980E-002   0.00000000    
  0.14830917950346012       -9.2764774448752016E-002   0.00000000    
  0.19364079736149575       -8.6821369629592096E-002   0.00000000    
  0.23559873738403411       -7.9401800863368538E-002   0.00000000    
  0.27344405406426464       -7.0685336464816798E-002   0.00000000    
  0.30661071142979307       -6.0840299836713650E-002   0.00000000    
  0.33453103584205901       -5.0087027557719405E-002   0.00000000    
  0.35686300498523787       -3.8623317970184132E-002   0.00000000    
  0.37323936019092618       -2.6683647713095296E-002   0.00000000    
  0.38355582630380880       -1.4472382848337699E-002   0.00000000    
  0.38765124562476844       -2.2128678836521765E-003   0.00000000    
  0.38564686732407361        9.9024283602008895E-003   0.00000000    
  0.37757463689866982        2.1680548781273366E-002   0.00000000    
  0.36374954840861429        3.2952765600529753E-002   0.00000000    
  0.34437192846187292        4.3567595360001057E-002   0.00000000    
  0.31990775513572822        5.3385182213328268E-002   0.00000000    
  0.29069622973601184        6.2298651906737529E-002   0.00000000    
  0.25730881024178737        7.0196949987300888E-002   0.00000000    
  0.22019456743773444        7.7014955120486700E-002   0.00000000    
  0.17998828964835278        8.2667449175741717E-002   0.00000000    
  0.13722326483988539        8.7124927071669911E-002   0.00000000    
   9.2562055810831739E-002   9.0324477772513997E-002   0.00000000    
   4.6600324502051142E-002   9.2265398831405915E-002   0.00000000    
   0.0000000000000000        9.2904842429773107E-002   0.00000000    
   0.0000000000000000       0.13998478214637430        0.00000000    
  -4.7216925790770081E-002  0.13900404184539891        0.00000000    
  -9.3779749426676065E-002  0.13611172185123829        0.00000000    
 -0.13906875006058553       0.13128922466115689        0.00000000    
 -0.18241456670510256       0.12461532503908312        0.00000000    
 -0.22324933275275305       0.11610945472858143        0.00000000    
 -0.26091239810584144       0.10588108966935500        0.00000000    
 -0.29490672812188273        9.3997591991854770E-002   0.00000000    
 -0.32461169497755621        8.0604063693748770E-002   0.00000000    
 -0.34962398369459730        6.5826504447611123E-002   0.00000000    
 -0.36940257231512424        4.9851393195565710E-002   0.00000000    
 -0.38366555670123159        3.2871321368833077E-002   0.00000000    
 -0.39199781124628269        1.5117467580598917E-002   0.00000000    
 -0.39426994848671509       -3.1500647769574495E-003   0.00000000    
 -0.39024098665116491       -2.1658240834884442E-002   0.00000000    
 -0.37996441995718599       -4.0089497625356324E-002   0.00000000    
 -0.36341573310480502       -5.8141185888246925E-002   0.00000000    
 -0.34085419483942092       -7.5461343315283522E-002   0.00000000    
 -0.31249843695138030       -9.1740742913980114E-002   0.00000000    
 -0.27882087573246361      -0.10662778903509570        0.00000000    
 -0.24028530336217072      -0.11983891491150894        0.00000000    
 -0.19756197457070945      -0.13106420149653455        0.00000000    
 -0.15133192483942176      -0.14008228724645197        0.00000000    
 -0.10242157059731029      -0.14666475397309442        0.00000000    
  -5.1672172627182530E-002 -0.15068598104585895        0.00000000    
   9.7690828294078552E-009 -0.15202877882671786        0.00000000    
   5.1672192111615937E-002 -0.15068598065494163        0.00000000    
  0.10242158986396292      -0.14666475308563065        0.00000000    
  0.15133194370601996      -0.14008228584208773        0.00000000    
  0.19756199297532315      -0.13106419973198352        0.00000000    
  0.24028532091550947      -0.11983891273167824        0.00000000    
  0.27882089268342986      -0.10662778658371061        0.00000000    
  0.31249845302382517       -9.1740740459122019E-002   0.00000000    
  0.34085420990021520       -7.5461340652140926E-002   0.00000000    
  0.36341574729086479       -5.8141183229847911E-002   0.00000000    
  0.37996443336908237       -4.0089494855387514E-002   0.00000000    
  0.39024099927474049       -2.1658238174944326E-002   0.00000000    
  0.39426995991389047       -3.1500622184137514E-003   0.00000000    
  0.39199782150196527        1.5117470388229769E-002   0.00000000    
  0.38366556628866899        3.2871324119665070E-002   0.00000000    
  0.36940258114886859        4.9851396272800365E-002   0.00000000    
  0.34962399138789008        6.5826507475096691E-002   0.00000000    
  0.32461170172718495        8.0604066751037456E-002   0.00000000    
  0.29490673407366003        9.3997594698029582E-002   0.00000000    
  0.26091240334638238       0.10588109218138958        0.00000000    
  0.22324933700182598       0.11610945732602283        0.00000000    
  0.18241456999986908       0.12461532737821952        0.00000000    
  0.13906875247386832       0.13128922715928681        0.00000000    
   9.3779751003501097E-002  0.13611172436606572        0.00000000    
   4.7216926635242448E-002  0.13900404427036755        0.00000000    
   0.0000000000000000       0.13998478456006505        0.00000000    
   0.0000000000000000       0.18777113726846309        0.00000000    
  -4.8055693233937033E-002  0.18649158055216888        0.00000000    
  -9.5472087865791852E-002  0.18260467612379658        0.00000000    
 -0.14158194808553679       0.17619640580061363        0.00000000    
 -0.18578935250912954       0.16726263925275131        0.00000000    
 -0.22741809413914071       0.15592692217742929        0.00000000    
 -0.26593121748864440       0.14224108446712172        0.00000000    
 -0.30066945293163699       0.12637143576280369        0.00000000    
 -0.33117384903790076       0.10844085540833538        0.00000000    
 -0.35683731121841999        8.8666735605397229E-002   0.00000000    
 -0.37730360922675876        6.7257319941242649E-002   0.00000000    
 -0.39206272197294395        4.4488762393917289E-002   0.00000000    
 -0.40089183080492730        2.0662659796135154E-002   0.00000000    
 -0.40342969473583368       -3.8839866465110026E-003   0.00000000    
 -0.39962103150791906       -2.8760675657221662E-002   0.00000000    
 -0.38930513297139718       -5.3578260362425641E-002   0.00000000    
 -0.37262597936409897       -7.7878996719862550E-002   0.00000000    
 -0.34966497819274145      -0.10124480569522866        0.00000000    
 -0.32078613236112646      -0.12319061873318517        0.00000000    
 -0.28633287692123799      -0.14330746493737551        0.00000000    
 -0.24688968249665655      -0.16113674144645207        0.00000000    
 -0.20305104572465052      -0.17632707662266883        0.00000000    
 -0.15559487514851092      -0.18850436893776459        0.00000000    
 -0.10532160903687254      -0.19742502943537477        0.00000000    
  -5.3146073484110719E-002 -0.20284937612064294        0.00000000    
   9.7742331749613242E-009 -0.20468238652023152        0.00000000    
   5.3146092996900506E-002 -0.20284937564031677        0.00000000    
  0.10532162832007826      -0.19742502818995503        0.00000000    
  0.15559489404307306      -0.18850436710265794        0.00000000    
  0.20305106392819858      -0.17632707413586213        0.00000000    
  0.24688970022915491      -0.16113673866655218        0.00000000    
  0.28633289389973970      -0.14330746172969033        0.00000000    
  0.32078614857849808      -0.12319061539497557        0.00000000    
  0.34966499355548525      -0.10124480204915884        0.00000000    
  0.37262599358936171       -7.7878993032174854E-002   0.00000000    
  0.38930514616958622       -5.3578256820508284E-002   0.00000000    
  0.39962104363230638       -2.8760671907107582E-002   0.00000000    
  0.40342970584470977       -3.8839829662296304E-003   0.00000000    
  0.40089184122692906        2.0662663340395463E-002   0.00000000    
  0.39206273154681348        4.4488765924497263E-002   0.00000000    
  0.37730361792444234        6.7257323868608082E-002   0.00000000    
  0.35683731908885274        8.8666739750454623E-002   0.00000000    
  0.33117385594713028       0.10844085925291932        0.00000000    
  0.30066945900579689       0.12637143931460432        0.00000000    
  0.26593122249624340       0.14224108791132753        0.00000000    
  0.22741809833229035       0.15592692564861674        0.00000000    
  0.18578935578599989       0.16726264258872722        0.00000000    
  0.14158195042375921       0.17619640912203618        0.00000000    
   9.5472089428407084E-002  0.18260467942739619        0.00000000    
   4.8055693967257243E-002  0.18649158375001296        0.00000000    
   0.0000000000000000       0.18777114048707086        0.00000000    
   0.0000000000000000       0.23653640582106839        0.00000000    
  -4.9116255011593002E-002  0.23489947349881249        0.00000000    
  -9.7576528428841389E-002  0.23007466440170926        0.00000000    
 -0.14476265250926090       0.22202361480170849        0.00000000    
 -0.18999443477900924       0.21087582969188665        0.00000000    
 -0.23270341169901382       0.19665266265110409        0.00000000    
 -0.27220464167016295       0.17953090929998661        0.00000000    
 -0.30799359578000141       0.15961001191551069        0.00000000    
 -0.33940957864643601       0.13712386915439151        0.00000000    
 -0.36603200350837384       0.11227081913361621        0.00000000    
 -0.38726524377874216        8.5353984309509148E-002   0.00000000    
 -0.40280048126315682        5.6687657076060764E-002   0.00000000    
 -0.41215935310493818        2.6652953916485728E-002   0.00000000    
 -0.41517998715775339       -4.3145755100605426E-003   0.00000000    
 -0.41156016586423166       -3.5757364771723657E-002   0.00000000    
 -0.40132338107136711       -6.7133048894381694E-002   0.00000000    
 -0.38439951586890730       -9.7926022037364335E-002   0.00000000    
 -0.36103095837006000      -0.12752613489626716        0.00000000    
 -0.33141938865233916      -0.15539850159483479        0.00000000    
 -0.29604379840443296      -0.18092722497752736        0.00000000    
 -0.25538765911750483      -0.20361511288794948        0.00000000    
 -0.21015771303941774      -0.22291608634329735        0.00000000    
 -0.16109091628717279      -0.23843712525838021        0.00000000    
 -0.10907972367440857      -0.24977553089463983        0.00000000    
  -5.5048210999702356E-002 -0.25670472215437085        0.00000000    
   9.9084798315309628E-009 -0.25902014403576890        0.00000000    
   5.5048230518956590E-002 -0.25670472134066274        0.00000000    
  0.10907974289262302      -0.24977552945197770        0.00000000    
  0.16109093521814000      -0.23843712294462496        0.00000000    
  0.21015773155197967      -0.22291608322572035        0.00000000    
  0.25538767682274360      -0.20361510946044672        0.00000000    
  0.29604381554704862      -0.18092722110082529        0.00000000    
  0.33141940501535372      -0.15539849738491068        0.00000000    
  0.36103097381736199      -0.12752613035157109        0.00000000    
  0.38439953043935360       -9.7926017233965851E-002   0.00000000    
  0.40132339444452531       -6.7133044243813139E-002   0.00000000    
  0.41156017813696488       -3.5757359956034358E-002   0.00000000    
  0.41517999854607962       -4.3145709954360073E-003   0.00000000    
  0.41215936336718967        2.6652958439351962E-002   0.00000000    
  0.40280049054093880        5.6687661460636564E-002   0.00000000    
  0.38726525230323555        8.5353989012352915E-002   0.00000000    
  0.36603201127549195       0.11227082408782167        0.00000000    
  0.33940958562135309       0.13712387394323150        0.00000000    
  0.30799360176365526       0.15961001634938798        0.00000000    
  0.27220464686677237       0.17953091371572108        0.00000000    
  0.23270341588558396       0.19665266697525113        0.00000000    
  0.18999443802459048       0.21087583403217086        0.00000000    
  0.14476265491387985       0.22202361889843350        0.00000000    
   9.7576529950163027E-002  0.23007466858891076        0.00000000    
   4.9116255704695633E-002  0.23489947747056830        0.00000000    
   0.0000000000000000       0.23653640969218712        0.00000000    
   0.0000000000000000       0.28641599775286880        0.00000000    
  -5.0360268096328549E-002  0.28449755647765806        0.00000000    
 -0.10008430868581747       0.27866204712603265        0.00000000    
 -0.14849996087569298       0.26903915988425503        0.00000000    
 -0.19501512836881429       0.25560838559456772        0.00000000    
 -0.23893400938122100       0.23854911558860137        0.00000000    
 -0.27971741823807850       0.21792024559027770        0.00000000    
 -0.31666695716000998       0.19396031859823326        0.00000000    
 -0.34931011029808878       0.16683384773974450        0.00000000    
 -0.37697975043875265       0.13685405422938610        0.00000000    
 -0.39929240897753709       0.10431779588840596        0.00000000    
 -0.41566112020280638        6.9628941386159368E-002   0.00000000    
 -0.42582428994438409        3.3234857465289210E-002   0.00000000    
 -0.42933737845958259       -4.3616109683572851E-003   0.00000000    
 -0.42610238178802673       -4.2564002696889223E-002   0.00000000    
 -0.41588533056251969       -8.0779103182279141E-002   0.00000000    
 -0.39879600391812670      -0.11829201670879065        0.00000000    
 -0.37487126497528667      -0.15445229452691131        0.00000000    
 -0.34446401418287509      -0.18849002116669367        0.00000000    
 -0.30791699248050775      -0.21975717671146822        0.00000000    
 -0.26583881951442900      -0.24751833344882929        0.00000000    
 -0.21887287817256845      -0.27120761376710828        0.00000000    
 -0.16786147962993261      -0.29022265418339815        0.00000000    
 -0.11369687302456809      -0.30416466257699221        0.00000000    
  -5.7393405753935985E-002 -0.31264943206112622        0.00000000    
   9.8116856542598548E-009 -0.31551593236214204        0.00000000    
   5.7393425494926716E-002 -0.31264943106733184        0.00000000    
  0.11369689254909743      -0.30416466079691484        0.00000000    
  0.16786149877799983      -0.29022265154334886        0.00000000    
  0.21887289685916317      -0.27120761009594829        0.00000000    
  0.26583883777511652      -0.24751832934167878        0.00000000    
  0.30791700993300342      -0.21975717214359874        0.00000000    
  0.34446403086297128      -0.18849001609593632        0.00000000    
  0.37487128084162158      -0.15445228911357425        0.00000000    
  0.39879601889512378      -0.11829201100783973        0.00000000    
  0.41588534461168680       -8.0779097304144995E-002   0.00000000    
  0.42610239480393713       -4.2563996975083548E-002   0.00000000    
  0.42933739035844815       -4.3616053583973571E-003   0.00000000    
  0.42582430080929839        3.3234863052845939E-002   0.00000000    
  0.41566112980063247        6.9628946957602564E-002   0.00000000    
  0.39929241725199804       0.10431780148103567        0.00000000    
  0.37697975778278076       0.13685405998161390        0.00000000    
  0.34931011675823620       0.16683385340664392        0.00000000    
  0.31666696284243129       0.19396032392304022        0.00000000    
  0.27971742298640878       0.21792025083621772        0.00000000    
  0.23893401336622999       0.23854912085590291        0.00000000    
  0.19501513154834726       0.25560839073816205        0.00000000    
  0.14849996321366496       0.26903916486019336        0.00000000    
  0.10008431030012907       0.27866205204097838        0.00000000    
   5.0360269046932013E-002  0.28449756121359687        0.00000000    
   0.0000000000000000       0.28641600250351057        0.00000000    
   0.0000000000000000       0.33767298861858597        0.00000000    
  -5.1778738979742715E-002  0.33538066312029391        0.00000000    
 -0.10290482713722127       0.32863015957980907        0.00000000    
 -0.15276881311459556       0.31735177571861212        0.00000000    
 -0.20067970982344605       0.30172292383669491        0.00000000    
 -0.24607437945726721       0.28174921741961212        0.00000000    
 -0.28823537630546736       0.25766563848810442        0.00000000    
 -0.32665231504560738       0.22958249173915912        0.00000000    
 -0.36060556655357140       0.19780916707410498        0.00000000    
 -0.38965210613135515       0.16259600162648083        0.00000000    
 -0.41311150066209157       0.12434898790183123        0.00000000    
 -0.43063485736428220        8.3490902697614333E-002   0.00000000    
 -0.44164144948601675        4.0543742646885504E-002   0.00000000    
 -0.44591698108537764       -3.8807924235319921E-003   0.00000000    
 -0.44305639489081428       -4.9139321319714775E-002   0.00000000    
 -0.43303085694815507       -9.4445291969029038E-002   0.00000000    
 -0.41569044070166411      -0.13905448988349431        0.00000000    
 -0.39124314078581340      -0.18206078025396655        0.00000000    
 -0.35985739168798786      -0.22267345614778733        0.00000000    
 -0.32201414633583031      -0.25996293044897045        0.00000000    
 -0.27822516706050582      -0.29317865427343215        0.00000000    
 -0.22924803769817978      -0.32148928662383752        0.00000000    
 -0.17590928345169438      -0.34429005757106179        0.00000000    
 -0.11920218557074218      -0.36096788754678305        0.00000000    
  -6.0185134135880676E-002 -0.37116564992014184        0.00000000    
   1.0056355880694549E-008 -0.37457719852670684        0.00000000    
   6.0185154111991067E-002 -0.37116564890736575        0.00000000    
  0.11920220524889011      -0.36096788527126300        0.00000000    
  0.17590930268471766      -0.34429005460486833        0.00000000    
  0.22924805673668697      -0.32148928262283344        0.00000000    
  0.27822518557313702      -0.29317864954434242        0.00000000    
  0.32201416435206964      -0.25996292519845637        0.00000000    
  0.35985740893427193      -0.22267345021731985        0.00000000    
  0.39124315712118135      -0.18206077397566187        0.00000000    
  0.41569045613055766      -0.13905448325169842        0.00000000    
  0.43303087152421693       -9.4445285241078258E-002   0.00000000    
  0.44305640850294792       -4.9139314450540560E-002   0.00000000    
  0.44591699344860491       -3.8807855949891537E-003   0.00000000    
  0.44164146059759551        4.0543749301459132E-002   0.00000000    
  0.43063486721085192        8.3490909734137808E-002   0.00000000    
  0.41311150925661572       0.12434899460479103        0.00000000    
  0.38965211361171298       0.16259600831297780        0.00000000    
  0.36060557320049313       0.19780917352405206        0.00000000    
  0.32665232069927080       0.22958249805190273        0.00000000    
  0.28823538112011471       0.25766564451921459        0.00000000    
  0.24607438343412252       0.28174922350285675        0.00000000    
  0.20067971304020477       0.30172292972991860        0.00000000    
  0.15276881545149659       0.31735178166634026        0.00000000    
  0.10290482861961942       0.32863016510112802        0.00000000    
   5.1778739626761452E-002  0.33538066874894695        0.00000000    
   0.0000000000000000       0.33767299407413565        0.00000000    
   0.0000000000000000       0.39034990746086723        0.00000000    
  -5.3317222097353262E-002  0.38780073453240022        0.00000000    
 -0.10601122988487995       0.38003121316538646        0.00000000    
 -0.15741116369455177       0.36721567080126843        0.00000000    
 -0.20693912517754351       0.34929891545794717        0.00000000    
 -0.25387880755188758       0.32650860597904530        0.00000000    
 -0.29769631064337904       0.29888577744179695        0.00000000    
 -0.33764265111797237       0.26672665907378779        0.00000000    
 -0.37323313040060702       0.23020975680002162        0.00000000    
 -0.40371598747396237       0.18972583417532368        0.00000000    
 -0.42867303269751694       0.14563661976028755        0.00000000    
 -0.44740245653280847        9.8457075259184235E-002   0.00000000    
 -0.45958658365138200        4.8769312121238688E-002   0.00000000    
 -0.46465062476334024       -2.7657672519586932E-003   0.00000000    
 -0.46242906247786630       -5.5335474176650086E-002   0.00000000    
 -0.45256823583572203      -0.10813448380682965        0.00000000    