 <VTKFile type="UnstructuredGrid" version="0.1" byte_order="BigEndian">
 <UnstructuredGrid>
 <Piece NumberOfPoints="        2601 " NumberOfCells="        2500 ">
 <PointData Scalars="scalars">
 <DataArray type="Float32" NumberOfComponents="3" Name="Velocity" Format="ascii">
   0.0000000000000000        0.0000000000000000        0.00000000    
 -0.11481398396951883        0.0000000000000000        0.00000000    
 -0.22874828484458962        0.0000000000000000        0.00000000    
 -0.34096289329866641        0.0000000000000000        0.00000000    
 -0.45044915708234917        0.0000000000000000        0.00000000    
 -0.55631144587145398        0.0000000000000000        0.00000000    
 -0.65733584832659486        0.0000000000000000        0.00000000    
 -0.75247745402885036        0.0000000000000000        0.00000000    
 -0.84026839813103693        0.0000000000000000        0.00000000    
 -0.91943930632747206        0.0000000000000000        0.00000000    
 -0.98827659738550333        0.0000000000000000        0.00000000    
  -1.0452638554371128        0.0000000000000000        0.00000000    
  -1.0885520708211323        0.0000000000000000        0.00000000    
  -1.1164614777542610        0.0000000000000000        0.00000000    
  -1.1272650794856058        0.0000000000000000        0.00000000    
  -1.1193673137433957        0.0000000000000000        0.00000000    
  -1.0915741618619574        0.0000000000000000        0.00000000    
  -1.0428034428561090        0.0000000000000000        0.00000000    
 -0.97288275049454120        0.0000000000000000        0.00000000    
 -0.88177337974124659        0.0000000000000000        0.00000000    
 -0.77072557048856249        0.0000000000000000        0.00000000    
 -0.64117477253499255        0.0000000000000000        0.00000000    
 -0.49590805530878102        0.0000000000000000        0.00000000    
 -0.33792111010266246        0.0000000000000000        0.00000000    
 -0.17123114943377860        0.0000000000000000        0.00000000    
   8.8033936122955311E-009   0.0000000000000000        0.00000000    
  0.17123116696920127        0.0000000000000000        0.00000000    
  0.33792112702350818        0.0000000000000000        0.00000000    
  0.49590807142335203        0.0000000000000000        0.00000000    
  0.64117478790491400        0.0000000000000000        0.00000000    
  0.77072558469332597        0.0000000000000000        0.00000000    
  0.88177339273840871        0.0000000000000000        0.00000000    
  0.97288276213235303        0.0000000000000000        0.00000000    
   1.0428034534597348        0.0000000000000000        0.00000000    
   1.0915741712664278        0.0000000000000000        0.00000000    
   1.1193673221665861        0.0000000000000000        0.00000000    
   1.1272650864664595        0.0000000000000000        0.00000000    
   1.1164614832436455        0.0000000000000000        0.00000000    
   1.0885520762950285        0.0000000000000000        0.00000000    
   1.0452638603426296        0.0000000000000000        0.00000000    
  0.98827660208384172        0.0000000000000000        0.00000000    
  0.91943931012045366        0.0000000000000000        0.00000000    
  0.84026840133434633        0.0000000000000000        0.00000000    
  0.75247745675652589        0.0000000000000000        0.00000000    
  0.65733585054386634        0.0000000000000000        0.00000000    
  0.55631144737523253        0.0000000000000000        0.00000000    
  0.45044915799946234        0.0000000000000000        0.00000000    
  0.34096289408521241        0.0000000000000000        0.00000000    
  0.22874828511331322        0.0000000000000000        0.00000000    
  0.11481398406334263        0.0000000000000000        0.00000000    
   0.0000000000000000        0.0000000000000000        0.00000000    
   0.0000000000000000       0.11485750211490137        0.00000000    
 -0.11448078312856076       0.11443874494324409        0.00000000    
 -0.22812305934064764       0.11313931179979513        0.00000000    
 -0.34000215827359165       0.11095587464376387        0.00000000    
 -0.44927340492044915       0.10780311392807809        0.00000000    
 -0.55484233410905981       0.10362958098626826        0.00000000    
 -0.65576261963494697        9.8316582399298691E-002   0.00000000    
 -0.75070411204416565        9.1767989299130534E-002   0.00000000    
 -0.83853044598394400        8.3850760179104353E-002   0.00000000    
 -0.91764816796413484        7.4439339003777374E-002   0.00000000    
 -0.98667315914364795        6.3424409486285541E-002   0.00000000    
  -1.0437972272939930        5.0688379950585526E-002   0.00000000    
  -1.0874053667512202        3.6209434821499298E-002   0.00000000    
  -1.1156501923475346        1.9946254106232280E-002   0.00000000    
  -1.1268382381668056        2.0468461029894917E-003   0.00000000    
  -1.1194215014914668       -1.7359899761137308E-002   0.00000000    
  -1.0919661595950696       -3.7887149232203231E-002   0.00000000    
  -1.0436975209410702       -5.9150767661786202E-002   0.00000000    
 -0.97394676206589625       -8.0519246722056695E-002   0.00000000    
 -0.88319555021628593      -0.10133990281707472        0.00000000    
 -0.77207025186194556      -0.12083177519824087        0.00000000    
 -0.64260110589642561      -0.13818674227241518        0.00000000    
 -0.49701510500739260      -0.15266455201604864        0.00000000    
 -0.33880652320565141      -0.16352955325432114        0.00000000    
 -0.17165810116363026      -0.17030740913447767        0.00000000    
   8.9670941719239237E-009 -0.17258043964491940        0.00000000    
  0.17165811906598519      -0.17030740903127972        0.00000000    
  0.33880654054118081      -0.16352955217611564        0.00000000    
  0.49701512114871205      -0.15266455109376956        0.00000000    
  0.64260112107114842      -0.13818674148344937        0.00000000    
  0.77207026626039654      -0.12083177404577572        0.00000000    
  0.88319556314990377      -0.10133990129710539        0.00000000    
  0.97394677369147886       -8.0519245574639117E-002   0.00000000    
   1.0436975319140720       -5.9150767122436373E-002   0.00000000    
   1.0919661700893430       -3.7887148093668742E-002   0.00000000    
   1.1194215104861862       -1.7359898418837366E-002   0.00000000    
   1.1268382452901586        2.0468480743936592E-003   0.00000000    
   1.1156501987174843        1.9946254379702134E-002   0.00000000    
   1.0874053722219954        3.6209435462693097E-002   0.00000000    
   1.0437972323285045        5.0688380314035650E-002   0.00000000    
  0.98667316333822075        6.3424410169954218E-002   0.00000000    
  0.91764817184374603        7.4439339540428751E-002   0.00000000    
  0.83853044947850763        8.3850760617173295E-002   0.00000000    
  0.75070411485295785        9.1767990022467966E-002   0.00000000    
  0.65576262156471010        9.8316583065395063E-002   0.00000000    
  0.55484233559336127       0.10362958147912690        0.00000000    
  0.44927340616622558       0.10780311426041057        0.00000000    
  0.34000215886190671       0.11095587509946211        0.00000000    
  0.22812305971913588       0.11313931207174639        0.00000000    
  0.11448078331686426       0.11443874503637787        0.00000000    
   0.0000000000000000       0.11485750230389535        0.00000000    
   0.0000000000000000       0.22907250573934748        0.00000000    
 -0.11350615500169474       0.22821209783429000        0.00000000    
 -0.22616903579274122       0.22567253400371440        0.00000000    
 -0.33718932365782378       0.22132345671230952        0.00000000    
 -0.44559294572543501       0.21511181716389050        0.00000000    
 -0.55053174895451018       0.20683002551849489        0.00000000    
 -0.65082417538944959       0.19633026369144543        0.00000000    
 -0.74547905783589741       0.18335209485961784        0.00000000    
 -0.83305230087688575       0.16766764149560159        0.00000000    
 -0.91232698097594223       0.14901626717418073        0.00000000    
 -0.98159019584665086       0.12713709205887330        0.00000000    
  -1.0393582172642784       0.10186918855997153        0.00000000    
  -1.0837405510320504        7.3020497753406841E-002   0.00000000    
  -1.1130419855631453        4.0682846030631915E-002   0.00000000    
  -1.1254425893887738        4.9002947636578743E-003   0.00000000    
  -1.1192584964880863       -3.3812790997243533E-002   0.00000000    
  -1.0931700324085885       -7.4976681064904779E-002   0.00000000    
  -1.0459394096565542      -0.11755911837023479        0.00000000    
 -0.97728385463035328      -0.16051583514327913        0.00000000    
 -0.88699750028449897      -0.20237950962148313        0.00000000    
 -0.77628888617438485      -0.24162471356675191        0.00000000    
 -0.64650123617469668      -0.27664923573156774        0.00000000    
 -0.50047798440886104      -0.30580994987529941        0.00000000    
 -0.34125357395147127      -0.32781578841779518        0.00000000    
 -0.17299036643823718      -0.34143144580890072        0.00000000    
   9.0935746281044972E-009 -0.34610353165424762        0.00000000    
  0.17299038438437145      -0.34143144543285470        0.00000000    
  0.34125359136989014      -0.32781578651789578        0.00000000    
  0.50047800092415329      -0.30580994767737751        0.00000000    
  0.64650125126859048      -0.27664923383025103        0.00000000    
  0.77628889996565920      -0.24162471144774555        0.00000000    
  0.88699751317463538      -0.20237950670208349        0.00000000    
  0.97728386682174473      -0.16051583338851058        0.00000000    
   1.0459394206934081      -0.11755911663111669        0.00000000    
   1.0931700422110167       -7.4976679412984026E-002   0.00000000    
   1.1192585055803026       -3.3812787958563253E-002   0.00000000    
   1.1254425978087546        4.9002975822846134E-003   0.00000000    
   1.1130419926406594        4.0682847552750527E-002   0.00000000    
   1.0837405573296583        7.3020498825033336E-002   0.00000000    
   1.0393582224664077       0.10186919002473213        0.00000000    
  0.98159019990658547       0.12713709362336639        0.00000000    
  0.91232698443321736       0.14901626774763005        0.00000000    
  0.83305230408013675       0.16766764253594521        0.00000000    
  0.74547906017567700       0.18335209652992435        0.00000000    
  0.65082417715053498       0.19633026486829719        0.00000000    
  0.55053175027353640       0.20683002638811906        0.00000000    
  0.44559294655563214       0.21511181784681221        0.00000000    
  0.33718932448483324       0.22132345747806956        0.00000000    
  0.22616903629457491       0.22567253450060668        0.00000000    
  0.11350615518104570       0.22821209821515070        0.00000000    
   0.0000000000000000       0.22907250600826948        0.00000000    
   0.0000000000000000       0.34192360699717422        0.00000000    
 -0.11183629079218871       0.34070479948872179        0.00000000    
 -0.22290838761886225       0.33691616677362640        0.00000000    
 -0.33236044049784114       0.33055352091880724        0.00000000    
 -0.43943356267615413       0.32135985249726218        0.00000000    
 -0.54309982119575462       0.30918840606783865        0.00000000    
 -0.64251361947978247       0.29367946042269688        0.00000000    
 -0.73640379534794242       0.27454930723953347        0.00000000    
 -0.82374383458029576       0.25138505997446320        0.00000000    
 -0.90297162535109443       0.22380266576027580        0.00000000    
 -0.97279822454426990       0.19144185089305046        0.00000000    
  -1.0313825865254400       0.15391815345939522        0.00000000    
  -1.0771424647640655       0.11111508177664198        0.00000000    
  -1.1080971336640741        6.2845698735668337E-002   0.00000000    
  -1.1224622087547613        9.5044503848226020E-003   0.00000000    
  -1.1184600492317098       -4.8601873736328877E-002   0.00000000    
  -1.0944093522628753      -0.11032543822478394        0.00000000    
  -1.0492834955384360      -0.17456552388955815        0.00000000    
 -0.98206511083883086      -0.23938205667699178        0.00000000    
 -0.89307589877738824      -0.30278754603515251        0.00000000    
 -0.78265135747928627      -0.36234852779934024        0.00000000    
 -0.65283926107416779      -0.41552386670976921        0.00000000    
 -0.50580323545942318      -0.45999329790794535        0.00000000    
 -0.34524637497810517      -0.49341241535793701        0.00000000    
 -0.17505477327148419      -0.51428833366160909        0.00000000    
   8.9569511444151120E-009 -0.52129050798425991        0.00000000    
  0.17505479071165278      -0.51428833257081419        0.00000000    
  0.34524639168394539      -0.49341241291074173        0.00000000    
  0.50580325162661333      -0.45999329481554269        0.00000000    
  0.65283927619495885      -0.41552386323513751        0.00000000    
  0.78265137090121584      -0.36234852425216763        0.00000000    
  0.89307591123930719      -0.30278754268277097        0.00000000    
  0.98206512224101239      -0.23938205359672191        0.00000000    
   1.0492835053483256      -0.17456552072911014        0.00000000    
   1.0944093606219416      -0.11032543530894404        0.00000000    
   1.1184600569443823       -4.8601870604960920E-002   0.00000000    
   1.1224622165401024        9.5044537103302386E-003   0.00000000    
   1.1080971408696512        6.2845701673137425E-002   0.00000000    
   1.0771424702819024       0.11111508390056568        0.00000000    
   1.0313825913216346       0.15391815568897940        0.00000000    
  0.97279822889972078       0.19144185327565993        0.00000000    
  0.90297162870541736       0.22380266711939742        0.00000000    
  0.82374383663341311       0.25138506178436493        0.00000000    
  0.73640379715339044       0.27454930925142268        0.00000000    
  0.64251362118628663       0.29367946193560535        0.00000000    
  0.54309982249875965       0.30918840744696469        0.00000000    
  0.43943356388950744       0.32135985324916372        0.00000000    
  0.33236044131164549       0.33055352201832594        0.00000000    
  0.22290838811068908       0.33691616758391402        0.00000000    
  0.11183629110826467       0.34070480005442133        0.00000000    
   0.0000000000000000       0.34192360757668494        0.00000000    
   0.0000000000000000       0.45279560813869740        0.00000000    
 -0.10947393618060930       0.45114432145713917        0.00000000    
 -0.21820605725877215       0.44628215856933534        0.00000000    
 -0.32551089314994874       0.43794571312293201        0.00000000    
 -0.43051203520711739       0.42604321891700153        0.00000000    
 -0.53249666747758573       0.41015722355947892        0.00000000    
 -0.63037806429692367       0.39000712972876406        0.00000000    
 -0.72332363587088067       0.36505867515346124        0.00000000    
 -0.80996538117923411       0.33485876433337491        0.00000000    
 -0.88925120832782323       0.29884386447999389        0.00000000    
 -0.95948292343291808       0.25646024893088698        0.00000000    
  -1.0192981986102565       0.20730067182472497        0.00000000    
  -1.0666944236748139       0.15088994258536054        0.00000000    
  -1.0999668964260114        8.7299251655642673E-002   0.00000000    
  -1.1170147251018392        1.6465069292705324E-002   0.00000000    
  -1.1159201057460879       -6.0658007690443376E-002   0.00000000    
  -1.0949737019025161      -0.14326514576840060        0.00000000    
  -1.0524685697672045      -0.22925555030626210        0.00000000    
 -0.98779486601517663      -0.31658286851630646        0.00000000    
 -0.90020718501410246      -0.40216238130141824        0.00000000    
 -0.79081655229421732      -0.48278762497025668        0.00000000    
 -0.66065559585222622      -0.55505658440244643        0.00000000    
 -0.51275455289459748      -0.61539641422037838        0.00000000    
 -0.35026266787151827      -0.66105681242844039        0.00000000    
 -0.17775868284029553      -0.68933829308635841        0.00000000    
   8.6770273545986281E-009 -0.69905279293389810        0.00000000    
  0.17775869993212226      -0.68933829125960211        0.00000000    
  0.35026268385341608      -0.66105680887294838        0.00000000    
  0.51275456756850590      -0.61539641038963244        0.00000000    
  0.66065560967167214      -0.55505657976529788        0.00000000    
  0.79081656549225532      -0.48278762026533029        0.00000000    
  0.90020719667049354      -0.40216237660513260        0.00000000    
  0.98779487600375160      -0.31658286405238678        0.00000000    
   1.0524685783948047      -0.22925554557619571        0.00000000    
   1.0949737093802263      -0.14326514182146508        0.00000000    
   1.1159201121564115       -6.0658003876388734E-002   0.00000000    
   1.1170147307098186        1.6465072665202290E-002   0.00000000    
   1.0999669017893379        8.7299255370540466E-002   0.00000000    
   1.0666944289404225       0.15088994571731468        0.00000000    
   1.0192982028872903       0.20730067475649686        0.00000000    
  0.95948292681787950       0.25646025194412525        0.00000000    
  0.88925121065098689       0.29884386727141421        0.00000000    
  0.80996538283959008       0.33485876667499115        0.00000000    
  0.72332363718491577       0.36505867722762742        0.00000000    
  0.63037806522157069       0.39000713166772877        0.00000000    
  0.53249666846492183       0.41015722485335959        0.00000000    
  0.43051203598764182       0.42604322005061251        0.00000000    
  0.32551089361840840       0.43794571455235731        0.00000000    
  0.21820605759486139       0.44628215950406486        0.00000000    
  0.10947393628477153       0.45114432230607504        0.00000000    
   0.0000000000000000       0.45279560885521059        0.00000000    
   0.0000000000000000       0.56083624922359199        0.00000000    
 -0.10634275950930079       0.55892161153178255        0.00000000    
 -0.21205376880929641       0.55294923402679308        0.00000000    
 -0.31640057746168132       0.54293151682584362        0.00000000    
 -0.41877978572808000       0.52843899920185833        0.00000000    
 -0.51828700772040015       0.50925453010774413        0.00000000    
 -0.61426618708801495       0.48477163033292120        0.00000000    
 -0.70556482028759249       0.45453960859927095        0.00000000    
 -0.79137700276304357       0.41783298567035199        0.00000000    
 -0.87022061007048013       0.37400030225948061        0.00000000    
 -0.94102386440726249       0.32234000228943810        0.00000000    
  -1.0019099285668673       0.26212347644991546        0.00000000    
  -1.0514238468962707       0.19297849636394973        0.00000000    
  -1.0873319117530915       0.11439244668976327        0.00000000    
  -1.1077476612275956        2.6836659382898722E-002   0.00000000    
  -1.1104073224551831       -6.9463353471108102E-002   0.00000000    
  -1.0931772019789023      -0.17263512651054400        0.00000000    
  -1.0545058475073736      -0.28106086345303727        0.00000000    
 -0.99263544217114619      -0.39132047647924956        0.00000000    
 -0.90761935144210792      -0.50002736226123523        0.00000000    
 -0.79912214685890026      -0.60280930289905343        0.00000000    
 -0.66930751943411515      -0.69500931647849129        0.00000000    
 -0.52018534693209972      -0.77246572721608053        0.00000000    
 -0.35587709636197573      -0.83078646777876075        0.00000000    
 -0.18069457562524086      -0.86729397820278709        0.00000000    
   7.8904185628917142E-009 -0.87954921867071167        0.00000000    
  0.18069459092809781      -0.86729397563582245        0.00000000    
  0.35587711129075189      -0.83078646347946605        0.00000000    
  0.52018536106669244      -0.77246572202696406        0.00000000    
  0.66930753187318848      -0.69500931064973326        0.00000000    
  0.79912215766007888      -0.60280929712643339        0.00000000    
  0.90761936151622580      -0.50002735636393580        0.00000000    
  0.99263545074067316      -0.39132047004393500        0.00000000    
   1.0545058545038817      -0.28106085776037149        0.00000000    
   1.0931772076921373      -0.17263512109304324        0.00000000    
   1.1104073271245434       -6.9463349016355785E-002   0.00000000    
   1.1077476656363234        2.6836663177674608E-002   0.00000000    
   1.0873319156260046       0.11439245076285072        0.00000000    
   1.0514238500058863       0.19297849999873087        0.00000000    
   1.0019099314291382       0.26212348011478148        0.00000000    
  0.94102386643113578       0.32234000630005272        0.00000000    
  0.87022061151339858       0.37400030569627818        0.00000000    
  0.79137700359220775       0.41783298864315332        0.00000000    
  0.70556482038708190       0.45453961111824859        0.00000000    
  0.61426618733012628       0.48477163207384177        0.00000000    
  0.51828700778448755       0.50925453171500412        0.00000000    
  0.41877978560290707       0.52843900041816250        0.00000000    
  0.31640057745836020       0.54293151836279074        0.00000000    
  0.21205376888727195       0.55294923490507497        0.00000000    
  0.10634275975737950       0.55892161249899064        0.00000000    
   0.0000000000000000       0.56083625017407446        0.00000000    
   0.0000000000000000       0.66543099220154944        0.00000000    
 -0.10244160354365456       0.66311240667499682        0.00000000    
 -0.20428504320030302       0.65631406265408521        0.00000000    
 -0.30500729701163648       0.64463692484300328        0.00000000    
 -0.40387372023746582       0.62798039608262357        0.00000000    
 -0.50037136006909966       0.60571916717601448        0.00000000    
 -0.59356090041277210       0.57747688376885320        0.00000000    
 -0.68285892822478378       0.54243218501253387        0.00000000    
 -0.76703538574328878       0.49993021613738547        0.00000000    
 -0.84532642030262728       0.44903887788042485        0.00000000    
 -0.91610069775616543       0.38888012002280753        0.00000000    
 -0.97826461209775306       0.31863449537727873        0.00000000    
  -1.0296795189365007       0.23739745729778650        0.00000000    
  -1.0687531250945872       0.14495630732842602        0.00000000    
  -1.0929002937884607        4.0836863106125228E-002   0.00000000    
  -1.0999480058132423       -7.3755042513685448E-002   0.00000000    
  -1.0874511321482918      -0.19806929542796256        0.00000000    
  -1.0529421181922805      -0.32880593193525992        0.00000000    
 -0.99529095467654349      -0.46309585166882777        0.00000000    
 -0.91271468570085534      -0.59584322674649925        0.00000000    
 -0.80636388799844994      -0.72184032642657536        0.00000000    
 -0.67663261238888595      -0.83552308629774141        0.00000000    
 -0.52699979380688777      -0.93070584345399954        0.00000000    
 -0.36086928236359089       -1.0029840117952300        0.00000000    
 -0.18337562404342497       -1.0477715140911956        0.00000000    
   6.9563203946797074E-009  -1.0631407993447339        0.00000000    
  0.18337563785623487       -1.0477715109464198        0.00000000    
  0.36086929550989161       -1.0029840070331550        0.00000000    
  0.52699980574126748      -0.93070583672155804        0.00000000    
  0.67663262305715322      -0.83552307905067835        0.00000000    
  0.80636389751022031      -0.72184031927786818        0.00000000    
  0.91271469314999509      -0.59584321943559471        0.00000000    
  0.99529096120176119      -0.46309584421860434        0.00000000    
   1.0529421239927519      -0.32880592495973660        0.00000000    
   1.0874511370522133      -0.19806928911349569        0.00000000    
   1.0999480099574526       -7.3755037152311714E-002   0.00000000    
   1.0929002964047114        4.0836867782872058E-002   0.00000000    
   1.0687531270414943       0.14495631172470155        0.00000000    
   1.0296795207149854       0.23739746154110011        0.00000000    
  0.97826461295977463       0.31863449959742091        0.00000000    
  0.91610069825710194       0.38888012467762983        0.00000000    
  0.84532642045866635       0.44903888159886840        0.00000000    
  0.76703538578416408       0.49993021955746020        0.00000000    
  0.68285892838009676       0.54243218769947599        0.00000000    
  0.59356090014352936       0.57747688562374389        0.00000000    
  0.50037135967332402       0.60571916897386169        0.00000000    
  0.40387371983268405       0.62798039730660749        0.00000000    
  0.30500729672340110       0.64463692613387413        0.00000000    
  0.20428504313464219       0.65631406347457277        0.00000000    
  0.10244160340784135       0.66311240760004875        0.00000000    
   0.0000000000000000       0.66543099330645439        0.00000000    
   0.0000000000000000       0.76556973793383742        0.00000000    
  -9.7690026586227441E-002  0.76310640605413116        0.00000000    
 -0.19490789068111417       0.75538248169424194        0.00000000    
 -0.29107113563038489       0.74245511875092463        0.00000000    
 -0.38576857291201816       0.72372717591919911        0.00000000    
 -0.47825408110512824       0.69895664761235521        0.00000000    
 -0.56811923138947218       0.66729520459415148        0.00000000    
 -0.65438238682451988       0.62817615651101566        0.00000000    
 -0.73655364309087035       0.58053506517611053        0.00000000    
 -0.81330491482580780       0.52347743966774696        0.00000000    
 -0.88393001952786665       0.45584204182839966        0.00000000    
 -0.94658351556352072       0.37649108236589485        0.00000000    
  -1.0001365006091969       0.28450985668845979        0.00000000    
  -1.0420352041005305       0.17881730809091165        0.00000000    
  -1.0704742522527653        5.9563164941449857E-002   0.00000000    
  -1.0823251789312984       -7.3581625017770907E-002   0.00000000    
  -1.0749657456897630      -0.21809794463997326        0.00000000    
  -1.0458926711440963      -0.37235830228352373        0.00000000    
 -0.99216042856218778      -0.53092582427258561        0.00000000    
 -0.91370798672057951      -0.68904090870606249        0.00000000    
 -0.80890068354232658      -0.83979969476677341        0.00000000    
 -0.68058131205090044      -0.97561332089048958        0.00000000    
 -0.53053449691598265       -1.0902942032111296        0.00000000    
 -0.36354843439009682       -1.1765111911770667        0.00000000    
 -0.18481862694641640       -1.2304667684932191        0.00000000    
   5.9790914199244461E-009  -1.2486387785170041        0.00000000    
  0.18481863880166227       -1.2304667651456758        0.00000000    
  0.36354844568810402       -1.1765111853940102        0.00000000    
  0.53053450716556294       -1.0902941952393206        0.00000000    
  0.68058132106550706      -0.97561331238170956        0.00000000    
  0.80890069059385039      -0.83979968576020270        0.00000000    
  0.91370799255737167      -0.68904089997565920        0.00000000    
  0.99216043323981762      -0.53092581615877565        0.00000000    
   1.0458926748734905      -0.37235829429860368        0.00000000    
   1.0749657483228063      -0.21809793734200211        0.00000000    
   1.0823251807067531       -7.3581619022599992E-002   0.00000000    
   1.0704742536720000        5.9563170868578770E-002   0.00000000    
   1.0420352046142034       0.17881731281171212        0.00000000    
   1.0001365003174763       0.28450986158106528        0.00000000    
  0.94658351484176229       0.37649108728324682        0.00000000    
  0.88393001834049634       0.45584204661270966        0.00000000    
  0.81330491366332180       0.52347744357671733        0.00000000    
  0.73655364205346363       0.58053506839574365        0.00000000    
  0.65438238615671562       0.62817615891435974        0.00000000    
  0.56811923095809447       0.66729520692077027        0.00000000    
  0.47825408023763633       0.69895664950112202        0.00000000    
  0.38576857213549764       0.72372717697029842        0.00000000    
  0.29107113519002492       0.74245511976197520        0.00000000    
  0.19490789023374014       0.75538248257898966        0.00000000    
   9.7690026256173318E-002  0.76310640686775544        0.00000000    
   0.0000000000000000       0.76556973868430278        0.00000000    
   0.0000000000000000       0.86065714529100001        0.00000000    
  -9.2109492006798424E-002  0.85781957242155393        0.00000000    
 -0.18377157645118522       0.84955031877861398        0.00000000    
 -0.27463560376259455       0.83531560821774509        0.00000000    
 -0.36412057158817501       0.81505014517740604        0.00000000    
 -0.45193539136672528       0.78793505867761815        0.00000000    
 -0.53731532218488032       0.75356292580765094        0.00000000    
 -0.61997612982805927       0.71083344759573419        0.00000000    
 -0.69888456746548477       0.65895851544653372        0.00000000    
 -0.77366959995155626       0.59659133834893596        0.00000000    
 -0.84287074190210098       0.52255543202519805        0.00000000    
 -0.90585396685494801       0.43541545179551905        0.00000000    
 -0.96044429377606422       0.33372983441106940        0.00000000    
  -1.0054519492920408       0.21650472000001961        0.00000000    
  -1.0376199518684952        8.2483829703984851E-002   0.00000000    
  -1.0548267432434408       -6.7443551330297988E-002   0.00000000    