 <VTKFile type="UnstructuredGrid" version="0.1" byte_order="BigEndian">
 <UnstructuredGrid>
 <Piece NumberOfPoints="        2601 " NumberOfCells="        2500 ">
 <PointData Scalars="scalars">
 <DataArray type="Float32" NumberOfComponents="3" Name="Velocity" Format="ascii">
   0.0000000000000000        0.0000000000000000        0.00000000    
  -1.3090737563809750E-002   0.0000000000000000        0.00000000    
  -2.5976771479988829E-002   0.0000000000000000        0.00000000    
  -3.8479987270982660E-002   0.0000000000000000        0.00000000    
  -5.0380095718345265E-002   0.0000000000000000        0.00000000    
  -6.1534982548838643E-002   0.0000000000000000        0.00000000    
  -7.1721118216120205E-002   0.0000000000000000        0.00000000    
  -8.0840036645982480E-002   0.0000000000000000        0.00000000    
  -8.8678240931474708E-002   0.0000000000000000        0.00000000    
  -9.5186625532396041E-002   0.0000000000000000        0.00000000    
 -0.10017529077583059        0.0000000000000000        0.00000000    
 -0.10364803282543011        0.0000000000000000        0.00000000    
 -0.10545153466303266        0.0000000000000000        0.00000000    
 -0.10564354670140633        0.0000000000000000        0.00000000    
 -0.10411868495408493        0.0000000000000000        0.00000000    
 -0.10098685305973977        0.0000000000000000        0.00000000    
  -9.6199187664890357E-002   0.0000000000000000        0.00000000    
  -8.9912762977761740E-002   0.0000000000000000        0.00000000    
  -8.2140031500118449E-002   0.0000000000000000        0.00000000    
  -7.3076907942039887E-002   0.0000000000000000        0.00000000    
  -6.2797416725476257E-002   0.0000000000000000        0.00000000    
  -5.1524762111037271E-002   0.0000000000000000        0.00000000    
  -3.9389964494395122E-002   0.0000000000000000        0.00000000    
  -2.6629263175956038E-002   0.0000000000000000        0.00000000    
  -1.3421522312144159E-002   0.0000000000000000        0.00000000    
   3.1231018445749540E-009   0.0000000000000000        0.00000000    
   1.3421528542723849E-002   0.0000000000000000        0.00000000    
   2.6629269394220632E-002   0.0000000000000000        0.00000000    
   3.9389970655272652E-002   0.0000000000000000        0.00000000    
   5.1524768188140509E-002   0.0000000000000000        0.00000000    
   6.2797422717299892E-002   0.0000000000000000        0.00000000    
   7.3076913873279289E-002   0.0000000000000000        0.00000000    
   8.2140037337087121E-002   0.0000000000000000        0.00000000    
   8.9912768678489602E-002   0.0000000000000000        0.00000000    
   9.6199193219435042E-002   0.0000000000000000        0.00000000    
  0.10098685841559255        0.0000000000000000        0.00000000    
  0.10411869016409654        0.0000000000000000        0.00000000    
  0.10564355161787839        0.0000000000000000        0.00000000    
  0.10545153933191044        0.0000000000000000        0.00000000    
  0.10364803726934048        0.0000000000000000        0.00000000    
  0.10017529491699026        0.0000000000000000        0.00000000    
   9.5186629304465975E-002   0.0000000000000000        0.00000000    
   8.8678244339196965E-002   0.0000000000000000        0.00000000    
   8.0840039671651306E-002   0.0000000000000000        0.00000000    
   7.1721120860361115E-002   0.0000000000000000        0.00000000    
   6.1534984791691033E-002   0.0000000000000000        0.00000000    
   5.0380097570490973E-002   0.0000000000000000        0.00000000    
   3.8479988706594241E-002   0.0000000000000000        0.00000000    
   2.5976772449327654E-002   0.0000000000000000        0.00000000    
   1.3090738053914858E-002   0.0000000000000000        0.00000000    
   0.0000000000000000        0.0000000000000000        0.00000000    
   0.0000000000000000        1.3166097879965467E-002   0.00000000    
  -1.3143172085385674E-002   1.3069273868207507E-002   0.00000000    
  -2.6093019029430894E-002   1.2768069072418136E-002   0.00000000    
  -3.8634746829060422E-002   1.2278336565449632E-002   0.00000000    
  -5.0606726072770267E-002   1.1595213118226737E-002   0.00000000    
  -6.1784418786864775E-002   1.0738828354576093E-002   0.00000000    
  -7.2046430297106320E-002   9.7107806636725167E-003   0.00000000    
  -8.1171387151269925E-002   8.5345563692245593E-003   0.00000000    
  -8.9084827740866984E-002   7.2185501395908508E-003   0.00000000    
  -9.5582120234956727E-002   5.7885884752659376E-003   0.00000000    
 -0.10064040070275551        4.2598186199312932E-003   0.00000000    
 -0.10408526835940167        2.6592523412222362E-003   0.00000000    
 -0.10594781201688433        1.0082542604399724E-003   0.00000000    
 -0.10609628231355925       -6.6631095513935003E-004   0.00000000    
 -0.10461541292534482       -2.3379593617263569E-003   0.00000000    
 -0.10142633273375005       -3.9814920406201059E-003   0.00000000    
  -9.6664079823431670E-002  -5.5669657262260776E-003   0.00000000    
  -9.0309573725706110E-002  -7.0725046455284877E-003   0.00000000    
  -8.2541507379294984E-002  -8.4668328950721732E-003   0.00000000    
  -7.3403257548122283E-002  -9.7330803179656051E-003   0.00000000    
  -6.3107166470440734E-002  -1.0841041905646529E-002   0.00000000    
  -5.1756936262178470E-002  -1.1780382928607126E-002   0.00000000    
  -3.9585502086764125E-002  -1.2524388949556969E-002   0.00000000    
  -2.6749929143966272E-002  -1.3070425449426449E-002   0.00000000    
  -1.3488368186970355E-002  -1.3397416547696436E-002   0.00000000    
   3.1042046146749367E-009  -1.3511020372650165E-002   0.00000000    
   1.3488374390981321E-002  -1.3397416527674158E-002   0.00000000    
   2.6749935309961281E-002  -1.3070425419117583E-002   0.00000000    
   3.9585508209568902E-002  -1.2524388879288483E-002   0.00000000    
   5.1756942302620165E-002  -1.1780382832738299E-002   0.00000000    
   6.3107172397517536E-002  -1.0841041802870681E-002   0.00000000    
   7.3403263366763435E-002  -9.7330802517215011E-003   0.00000000    
   8.2541513142019005E-002  -8.4668328111282797E-003   0.00000000    
   9.0309579409425869E-002  -7.0725045142270146E-003   0.00000000    
   9.6664085364142296E-002  -5.5669655683350571E-003   0.00000000    
  0.10142633813514450       -3.9814918605028619E-003   0.00000000    
  0.10461541805472777       -2.3379591239907540E-003   0.00000000    
  0.10609628722971015       -6.6631068610308985E-004   0.00000000    
  0.10594781665462054        1.0082545174129808E-003   0.00000000    
  0.10408527269131164        2.6592526150431648E-003   0.00000000    
  0.10064040475597447        4.2598189275523243E-003   0.00000000    
   9.5582123980295211E-002   5.7885888446153957E-003   0.00000000    
   8.9084831102935524E-002   7.2185505178592787E-003   0.00000000    
   8.1171390136110771E-002   8.5345567502375218E-003   0.00000000    
   7.2046432903611360E-002   9.7107810424235941E-003   0.00000000    
   6.1784421021406598E-002   1.0738828749177054E-002   0.00000000    
   5.0606727922599994E-002   1.1595213499044837E-002   0.00000000    
   3.8634748254229433E-002   1.2278337025826822E-002   0.00000000    
   2.6093019981945662E-002   1.2768069550968203E-002   0.00000000    
   1.3143172562017436E-002   1.3069274344774465E-002   0.00000000    
   0.0000000000000000        1.3166098370135689E-002   0.00000000    
   0.0000000000000000        2.6449553491329700E-002   0.00000000    
  -1.3312671278691271E-002   2.6243061863095662E-002   0.00000000    
  -2.6417712252871078E-002   2.5650569222863392E-002   0.00000000    
  -3.9134860949174857E-002   2.4656113096898150E-002   0.00000000    
  -5.1240127109727730E-002   2.3296082132657384E-002   0.00000000    
  -6.2589991118462612E-002   2.1566916124723286E-002   0.00000000    
  -7.2956533537409579E-002   1.9512646813380170E-002   0.00000000    
  -8.2240586194655324E-002   1.7143099607746230E-002   0.00000000    
  -9.0223768379982597E-002   1.4508029459112913E-002   0.00000000    
  -9.6856966288624849E-002   1.1630999200596024E-002   0.00000000    
 -0.10194521664380095        8.5653382489017660E-003   0.00000000    
 -0.10549303605924716        5.3478191560786094E-003   0.00000000    
 -0.10734228138514583        2.0328756794819364E-003   0.00000000    
 -0.10755222599433932       -1.3311183861465512E-003   0.00000000    
 -0.10601337144293534       -4.6914769123411210E-003   0.00000000    
 -0.10283802991553921       -7.9909974175750159E-003   0.00000000    
  -9.7974398209665983E-002  -1.1181946293324776E-002   0.00000000    
  -9.1582891362728541E-002  -1.4202138505168063E-002   0.00000000    
  -8.3674565756818822E-002  -1.7012192576515994E-002   0.00000000    
  -7.4449566751727245E-002  -1.9549571193456156E-002   0.00000000    
  -6.3982269547531556E-002  -2.1786541119751191E-002   0.00000000    
  -5.2500824322772595E-002  -2.3665161056230229E-002   0.00000000    
  -4.0138338023698678E-002  -2.5172133266686443E-002   0.00000000    
  -2.7136387504377465E-002  -2.6258806628088664E-002   0.00000000    
  -1.3677429965414597E-002  -2.6928155930539540E-002   0.00000000    
   3.0521664871905998E-009  -2.7144687385725997E-002   0.00000000    
   1.3677436060786075E-002  -2.6928155897157500E-002   0.00000000    
   2.7136393570996505E-002  -2.6258806544371079E-002   0.00000000    
   4.0138344018848360E-002  -2.5172133135167026E-002   0.00000000    
   5.2500830253026924E-002  -2.3665160874353920E-002   0.00000000    
   6.3982275415863890E-002  -2.1786540927695743E-002   0.00000000    
   7.4449572513426224E-002  -1.9549571001422527E-002   0.00000000    
   8.3674571361786590E-002  -1.7012192405713090E-002   0.00000000    
   9.1582896859880719E-002  -1.4202138273905486E-002   0.00000000    
   9.7974403626693560E-002  -1.1181946012260871E-002   0.00000000    
  0.10283803512794693       -7.9909970166943435E-003   0.00000000    
  0.10601337647272897       -4.6914764407432006E-003   0.00000000    
  0.10755223079492413       -1.3311179085314674E-003   0.00000000    
  0.10734228594235262        2.0328762496691286E-003   0.00000000    
  0.10549304031166973        5.3478197272961376E-003   0.00000000    
  0.10194522055512074        8.5653388789202634E-003   0.00000000    
   9.6856969897373565E-002   1.1630999857999879E-002   0.00000000    
   9.0223771699585398E-002   1.4508030221743047E-002   0.00000000    
   8.2240589113635493E-002   1.7143100382248092E-002   0.00000000    
   7.2956536066935848E-002   1.9512647566432364E-002   0.00000000    
   6.2589993291281829E-002   2.1566916873693671E-002   0.00000000    
   5.1240128896906850E-002   2.3296082929458561E-002   0.00000000    
   3.9134862309119882E-002   2.4656113993187512E-002   0.00000000    
   2.6417713183810216E-002   2.5650570167161699E-002   0.00000000    
   1.3312671740458725E-002   2.6243062818969362E-002   0.00000000    
   0.0000000000000000        2.6449554440592705E-002   0.00000000    
   0.0000000000000000        3.9943292762865894E-002   0.00000000    
  -1.3586964746387117E-002   3.9650297022892189E-002   0.00000000    
  -2.6975570708022943E-002   3.8738319381951061E-002   0.00000000    
  -3.9944405850788005E-002   3.7255685132836530E-002   0.00000000    
  -5.2328339896502214E-002   3.5187048590754055E-002   0.00000000    
  -6.3894705773069257E-002   3.2593517786977715E-002   0.00000000    
  -7.4520046836506454E-002   2.9479266759406323E-002   0.00000000    
  -8.3973619638653380E-002   2.5915443171642731E-002   0.00000000    
  -9.2180278378948710E-002   2.1926864727770952E-002   0.00000000    
  -9.8925289236173469E-002   1.7591710511035780E-002   0.00000000    
 -0.10418650286353170        1.2955428564854866E-002   0.00000000    
 -0.10777942884161758        8.0998117709761563E-003   0.00000000    
 -0.10973738333466337        3.0894202360672168E-003   0.00000000    
 -0.10991945668632595       -1.9943077422860697E-003   0.00000000    
 -0.10841429486441569       -7.0709668786358790E-003   0.00000000    
 -0.10513576796931390       -1.2064038935227556E-002   0.00000000    
 -0.10022466256208948       -1.6882305130956794E-002   0.00000000    
  -9.3657409489877219E-002  -2.1459202933377174E-002   0.00000000    
  -8.5620312823696310E-002  -2.5699213928287119E-002   0.00000000    
  -7.6155632622152886E-002  -2.9550892645991655E-002   0.00000000    
  -6.5484982750759008E-002  -3.2921830471682866E-002   0.00000000    
  -5.3714526290586706E-002  -3.5780437187091292E-002   0.00000000    
  -4.1087633733545091E-002  -3.8044899882414669E-002   0.00000000    
  -2.7767162537812667E-002  -3.9707125661311009E-002   0.00000000    
  -1.4002070828410724E-002  -4.0702550127476173E-002   0.00000000    
   2.9657953552576398E-009  -4.1048463997193391E-002   0.00000000    
   1.4002076725382109E-002  -4.0702550050513285E-002   0.00000000    
   2.7767168389666155E-002  -3.9707125547303837E-002   0.00000000    
   4.1087639549756388E-002  -3.8044899674073242E-002   0.00000000    
   5.3714532050409852E-002  -3.5780436960753552E-002   0.00000000    
   6.5484988435483851E-002  -3.2921830187068381E-002   0.00000000    
   7.6155638226607314E-002  -2.9550892359613154E-002   0.00000000    
   8.5620318319518135E-002  -2.5699213586465049E-002   0.00000000    
   9.3657414824448629E-002  -2.1459202604067539E-002   0.00000000    
  0.10022466772223679       -1.6882304693391002E-002   0.00000000    
  0.10513577303434654       -1.2064038391113989E-002   0.00000000    
  0.10841429978481928       -7.0709662230275822E-003   0.00000000    
  0.10991946136666625       -1.9943069794089684E-003   0.00000000    
  0.10973738771903666        3.0894210603377276E-003   0.00000000    
  0.10777943296403641        8.0998126548493532E-003   0.00000000    
  0.10418650669989819        1.2955429509373093E-002   0.00000000    
   9.8925292750437030E-002   1.7591711478614259E-002   0.00000000    
   9.2180281549995427E-002   2.1926865812589444E-002   0.00000000    
   8.3973622524103744E-002   2.5915444310175475E-002   0.00000000    
   7.4520049362081342E-002   2.9479267897757320E-002   0.00000000    
   6.3894707874247142E-002   3.2593518931753593E-002   0.00000000    
   5.2328341606627589E-002   3.5187049768442606E-002   0.00000000    
   3.9944407163381344E-002   3.7255686473005083E-002   0.00000000    
   2.6975571563557042E-002   3.8738320768435593E-002   0.00000000    
   1.3586965185601253E-002   3.9650298422071621E-002   0.00000000    
   0.0000000000000000        3.9943294169805049E-002   0.00000000    
   0.0000000000000000        5.3789766446078087E-002   0.00000000    
  -1.3978908654053900E-002   5.3370973324199336E-002   0.00000000    
  -2.7741521024897305E-002   5.2170137984778334E-002   0.00000000    
  -4.1101289780336794E-002   5.0153746948273924E-002   0.00000000    
  -5.3823156918689823E-002   4.7396064442832821E-002   0.00000000    
  -6.5759550735998651E-002   4.3888538012077739E-002   0.00000000    
  -7.6669311214979566E-002   3.9720624401189550E-002   0.00000000    
  -8.6451302985387682E-002   3.4910926284128632E-002   0.00000000    
  -9.4872304141928043E-002   2.9560317615989946E-002   0.00000000    
 -0.10188326930656702        2.3715509571753907E-002   0.00000000    
 -0.10727374464299121        1.7484594302527887E-002   0.00000000    
 -0.11105045116272125        1.0941554165625209E-002   0.00000000    
 -0.11304038902130263        4.1968457258681671E-003   0.00000000    
 -0.11330740569784119       -2.6513678821392748E-003   0.00000000    
 -0.11172925744828527       -9.4959415932261947E-003   0.00000000    
 -0.10842547909318410       -1.6220094462654613E-002   0.00000000    
 -0.10333508698694735       -2.2726472209945888E-002   0.00000000    
  -9.6628545195485707E-002  -2.8887556004340939E-002   0.00000000    
  -8.8312465886572739E-002  -3.4622762209603607E-002   0.00000000    
  -7.8599776604679747E-002  -3.9803439390645519E-002   0.00000000    
  -6.7565795565401834E-002  -4.4372640254720375E-002   0.00000000    
  -5.5453682907980716E-002  -4.8210922265247189E-002   0.00000000    
  -4.2402854596371595E-002  -5.1290861469353334E-002   0.00000000    
  -2.8671146785625393E-002  -5.3512068956766926E-002   0.00000000    
  -1.4451978981105555E-002  -5.4880592249275245E-002   0.00000000    
   2.8243076351970394E-009  -5.5323203405438531E-002   0.00000000    
   1.4451984639079443E-002  -5.4880592147051613E-002   0.00000000    
   2.8671152418952656E-002  -5.3512068798255867E-002   0.00000000    
   4.2402860187155590E-002  -5.1290861227330294E-002   0.00000000    
   5.5453688438715537E-002  -4.8210921956153840E-002   0.00000000    
   6.7565801025629119E-002  -4.4372639907255547E-002   0.00000000    
   7.8599781950729641E-002  -3.9803438972669400E-002   0.00000000    
   8.8312471097764619E-002  -3.4622761755888347E-002   0.00000000    
   9.6628550309485917E-002  -2.8887555528482163E-002   0.00000000    
  0.10333509200689486       -2.2726471650452242E-002   0.00000000    
  0.10842548391880594       -1.6220093751028352E-002   0.00000000    
  0.11172926204741244       -9.4959407340066571E-003   0.00000000    
  0.11330741010227696       -2.6513668881184439E-003   0.00000000    
  0.11304039323150765        4.1968468091930205E-003   0.00000000    
  0.11105045512003343        1.0941555305291662E-002   0.00000000    
  0.10727374832969849        1.7484595547910327E-002   0.00000000    
  0.10188327267469627        2.3715510879149450E-002   0.00000000    
   9.4872307222315946E-002   2.9560318991949816E-002   0.00000000    
   8.6451305715450566E-002   3.4910927767441619E-002   0.00000000    
   7.6669313594584745E-002   3.9720625905093787E-002   0.00000000    
   6.5759552803745666E-002   4.3888539527555823E-002   0.00000000    
   5.3823158597319537E-002   4.7396066029989310E-002   0.00000000    
   4.1101291014464143E-002   5.0153748721009410E-002   0.00000000    
   2.7741521865367460E-002   5.2170139789412685E-002   0.00000000    
   1.3978909064941236E-002   5.3370975151132032E-002   0.00000000    
   0.0000000000000000        5.3789768275365753E-002   0.00000000    
   0.0000000000000000        6.8056313129755644E-002   0.00000000    
  -1.4475169196048489E-002   6.7559719278708949E-002   0.00000000    
  -2.8742200754294542E-002   6.6012250718263762E-002   0.00000000    
  -4.2566611085490806E-002   6.3497028037748662E-002   0.00000000    
  -5.5776606147094177E-002   5.9985860203812705E-002   0.00000000    
  -6.8123235440500057E-002   5.5582979968277511E-002   0.00000000    
  -7.9479235456809447E-002   5.0293157409329131E-002   0.00000000    
  -8.9594864617966535E-002   4.4237228613370497E-002   0.00000000    
  -9.8393849907042086E-002   3.7455215957343142E-002   0.00000000    
 -0.10564075663378587        3.0079697267683121E-002   0.00000000    
 -0.11131500226025889        2.2186341502019796E-002   0.00000000    
 -0.11521122100338274        1.3913946070973088E-002   0.00000000    
 -0.11736722562483382        5.3716099096563939E-003   0.00000000    
 -0.11762297954827269       -3.3021479535527980E-003   0.00000000    
 -0.11607494255655151       -1.1970133488625238E-002   0.00000000    
 -0.11262167501540425       -2.0501735285950742E-002   0.00000000    
 -0.10741546856413278       -2.8740216994573457E-002   0.00000000    
 -0.10042313486281353       -3.6571473853726409E-002   0.00000000    
  -9.1846304246490332E-002  -4.3830541630078365E-002   0.00000000    
  -8.1724623922978010E-002  -5.0428816998726166E-002   0.00000000    
  -7.0298508874097165E-002  -5.6206146323542996E-002   0.00000000    
  -5.7678984950500639E-002  -6.1107840426837430E-002   0.00000000    
  -4.4130718846217797E-002  -6.4991825489958979E-002   0.00000000    
  -2.9828399382404149E-002  -6.7843920015343034E-002   0.00000000    
  -1.5043148278782536E-002  -6.9551947963932645E-002   0.00000000    
   2.7033377912574516E-009  -7.0145768356511456E-002   0.00000000    
   1.5043153656989173E-002  -6.9551947842598674E-002   0.00000000    
   2.9828404741835308E-002  -6.7843919832520111E-002   0.00000000    
   4.4130724154144894E-002  -6.4991825178200457E-002   0.00000000    
   5.7678990187122858E-002  -6.1107840056125705E-002   0.00000000    
   7.0298513994621628E-002  -5.6206145851091113E-002   0.00000000    
   8.1724628940755023E-002  -5.0428816488812145E-002   0.00000000    
   9.1846309195211265E-002  -4.3830541064386726E-002   0.00000000    
  0.10042313971390446       -3.6571473295022028E-002   0.00000000    
  0.10741547326168453       -2.8740216270333352E-002   0.00000000    
  0.11262167954372775       -2.0501734375516788E-002   0.00000000    
  0.11607494692632961       -1.1970132443173083E-002   0.00000000    
  0.11762298370893925       -3.3021467419613510E-003   0.00000000    
  0.11736722956520396        5.3716111899380931E-003   0.00000000    
  0.11521122475184697        1.3913947458481780E-002   0.00000000    
  0.11131500575776772        2.2186343021120544E-002   0.00000000    
  0.10564075988319779        3.0079698868035552E-002   0.00000000    
   9.8393852824828404E-002   3.7455217659713366E-002   0.00000000    
   8.9594867243738607E-002   4.4237230412612696E-002   0.00000000    
   7.9479237803691580E-002   5.0293159226652125E-002   0.00000000    
   6.8123237428131200E-002   5.5582981841446263E-002   0.00000000    
   5.5776607742736371E-002   5.9985862214385038E-002   0.00000000    
   4.2566612322655441E-002   6.3497030190048737E-002   0.00000000    
   2.8742201561497049E-002   6.6012252966953067E-002   0.00000000    
   1.4475169603930756E-002   6.7559721490490041E-002   0.00000000    
   0.0000000000000000        6.8056315392964820E-002   0.00000000    
   0.0000000000000000        8.2912308512761601E-002   0.00000000    
  -1.5089791924165877E-002   8.2269838019440364E-002   0.00000000    
  -2.9949254549774075E-002   8.0429779154469166E-002   0.00000000    
  -4.4381921622002066E-002   7.7337729932928381E-002   0.00000000    
  -5.8134431301882707E-002   7.3108815947227859E-002   0.00000000    
  -7.1053035800561479E-002   6.7726410787616154E-002   0.00000000    
  -8.2874285688997809E-002   6.1328129215571112E-002   0.00000000    
  -9.3494256136752815E-002   5.3939008956550530E-002   0.00000000    
 -0.10265435753971719        4.5713674780299064E-002   0.00000000    
 -0.11030598644542018        3.6720926327793127E-002   0.00000000    
 -0.11621185269173276        2.7126376485720170E-002   0.00000000    
 -0.12038249768211735        1.7041926738678118E-002   0.00000000    
 -0.12261886410612652        6.6371521168987566E-003   0.00000000    
 -0.12299243064712133       -3.9372181340964771E-003   0.00000000    
 -0.12135832251481073       -1.4516056961856993E-002   0.00000000    
 -0.11784808154825405       -2.4918169114761989E-002   0.00000000    
 -0.11238417223032258       -3.4992747819076235E-002   0.00000000    
 -0.10515387060125433       -4.4540427488840517E-002   0.00000000    
  -9.6155489721704041E-002  -5.3435648701513995E-002   0.00000000    
  -8.5623543352247408E-002  -6.1476186040713240E-002   0.00000000    
  -7.3634541526214972E-002  -6.8572743644187334E-002   0.00000000    
  -6.0457230634047870E-002  -7.4536927570347258E-002   0.00000000    
  -4.6241712937778422E-002  -7.9325371843400522E-002   0.00000000    
  -3.1273758152218042E-002  -8.2779497708585031E-002   0.00000000    
  -1.5765692963592322E-002  -8.4908536385249658E-002   0.00000000    
   2.5243065733939173E-009  -8.5596876261931243E-002   0.00000000    
   1.5765698022431753E-002  -8.4908536245673044E-002   0.00000000    
   3.1273763157225382E-002  -8.2779497471397082E-002   0.00000000    
   4.6241717916024681E-002  -7.9325371507741743E-002   0.00000000    
   6.0457235558533322E-002  -7.4536927098470235E-002   0.00000000    
   7.3634546385799346E-002  -6.8572743091901783E-002   0.00000000    
   8.5623548132866281E-002  -6.1476185428919812E-002   0.00000000    
   9.6155494392897750E-002  -5.3435648059220353E-002   0.00000000    
  0.10515387510918123       -4.4540426745840987E-002   0.00000000    
  0.11238417658254903       -3.4992746969891415E-002   0.00000000    
  0.11784808577861770       -2.4918168038181501E-002   0.00000000    
  0.12135832656375631       -1.4516055742587660E-002   0.00000000    
  0.12299243454250444       -3.9372167336479752E-003   0.00000000    
  0.12261886784270787        6.6371535874218844E-003   0.00000000    
  0.12038250116152359        1.7041928385026696E-002   0.00000000    
  0.11621185594075242        2.7126378227323319E-002   0.00000000    
  0.11030598943573887        3.6720928212441356E-002   0.00000000    
  0.10265436030093307        4.5713676759102193E-002   0.00000000    
   9.3494258591893115E-002   5.3939011077449889E-002   0.00000000    
   8.2874287815156211E-002   6.1328131319109108E-002   0.00000000    
   7.1053037643440273E-002   6.7726413017100723E-002   0.00000000    
   5.8134432835359212E-002   7.3108818302875869E-002   0.00000000    
   4.4381922775957761E-002   7.7337732478151539E-002   0.00000000    
   2.9949255333149752E-002   8.0429781810777798E-002   0.00000000    
   1.5089792299714629E-002   8.2269840630749533E-002   0.00000000    
   0.0000000000000000        8.2912311159874019E-002   0.00000000    
   0.0000000000000000        9.8396075096447100E-002   0.00000000    
  -1.5807065255917616E-002   9.7684019867840893E-002   0.00000000    
  -3.1392109638685488E-002   9.5461195529544046E-002   0.00000000    
  -4.6501509798002445E-002   9.1849471985317108E-002   0.00000000    
  -6.0954385465009919E-002   8.6803550329067697E-002   0.00000000    
  -7.4477339283492663E-002   8.0474325772673327E-002   0.00000000    
  -8.6938248020322864E-002   7.2863463731569447E-002   0.00000000    
  -9.8058244707189796E-002   6.4144732396496998E-002   0.00000000    
 -0.10776001264919241        5.4370911277542448E-002   0.00000000    
 -0.11577580554579718        4.3732202156202646E-002   0.00000000    
 -0.12208775745780283        3.2334009068379722E-002   0.00000000    
 -0.12645739372009290        2.0375665581561848E-002   0.00000000    
 -0.12892937067769558        8.0128465328361976E-003   0.00000000    
 -0.12931285688607660       -4.5547700099610325E-003   0.00000000    
 -0.12771597482814104       -1.7128405787956137E-002   0.00000000    
 -0.12401223700829901       -2.9518709674683636E-002   0.00000000    
 -0.11837116438402094       -4.1496100091051979E-002   0.00000000    
 -0.11074344296896067       -5.2894009234136639E-002   0.00000000    
 -0.10135390569844568       -6.3468896338473454E-002   0.00000000    
  -9.0237275192276076E-002  -7.3090426584559137E-002   0.00000000    
  -7.7662786943736475E-002  -8.1520904691169765E-002   0.00000000    
  -6.3748604449195778E-002  -8.8679171483221061E-002   0.00000000    
  -4.8792409647122212E-002  -9.4353752151127082E-002   0.00000000    
  -3.2987292272158991E-002  -9.8523101319813011E-002   0.00000000    
  -1.6639033299858531E-002 -0.10102016877053278        0.00000000    
   2.3011677523825423E-009 -0.10188888681357011        0.00000000    
   1.6639037903939950E-002 -0.10102016864292838        0.00000000    
   3.2987296905609302E-002  -9.8523101046189471E-002   0.00000000    
   4.8792414197981950E-002  -9.4353751742552214E-002   0.00000000    
   6.3748608959392258E-002  -8.8679170989836173E-002   0.00000000    
   7.7662791441293705E-002  -8.1520904082851620E-002   0.00000000    
   9.0237279629354281E-002  -7.3090425889353675E-002   0.00000000    
  0.10135391000808239       -6.3468895542725071E-002   0.00000000    
  0.11074344710900538       -5.2894008311732750E-002   0.00000000    
  0.11837116837112829       -4.1496099112633612E-002   0.00000000    
  0.12401224085501941       -2.9518708465086693E-002   0.00000000    
  0.12771597857334080       -1.7128404418764290E-002   0.00000000    
  0.12931286049999408       -4.5547684745900581E-003   0.00000000    
  0.12892937408211072        8.0128482367412650E-003   0.00000000    
  0.12645739695046571        2.0375667425746171E-002   0.00000000    
  0.12208776045227430        3.2334011078435324E-002   0.00000000    
  0.11577580829032863        4.3732204281039674E-002   0.00000000    
  0.10776001511482652        5.4370913524157197E-002   0.00000000    
   9.8058246950847472E-002   6.4144734777636936E-002   0.00000000    
   8.6938250043344975E-002   7.2863466124484577E-002   0.00000000    
   7.4477341010658601E-002   8.0474328291916808E-002   0.00000000    
   6.0954386886289590E-002   8.6803553010245574E-002   0.00000000    
   4.6501510889145344E-002   9.1849474914668397E-002   0.00000000    
   3.1392110357017673E-002   9.5461198545115603E-002   0.00000000    
   1.5807065621629982E-002   9.7684022880334231E-002   0.00000000    
   0.0000000000000000        9.8396078083636762E-002   0.00000000    
   0.0000000000000000       0.11470665062166602        0.00000000    
  -1.6642571235247729E-002  0.11382411034395243        0.00000000    
  -3.3036135769190393E-002  0.11130074347138232        0.00000000    
  -4.8971623097263169E-002  0.10705584094961670        0.00000000    
  -6.4170433650859476E-002  0.10124989697761361        0.00000000    
  -7.8471495285719312E-002   9.3853023809453220E-002   0.00000000    
  -9.1579742847657394E-002   8.5054951182312113E-002   0.00000000    
 -0.10338846691043689        7.4882994655393970E-002   0.00000000    
 -0.11360223786610625        6.3549216817923901E-002   0.00000000    
 -0.12217382125446202        5.1142301518550239E-002   0.00000000    
 -0.12882615388142657        3.7889222791655748E-002   0.00000000    
 -0.13357545059462345        2.3940413058491313E-002   0.00000000    
 -0.13618332109704151        9.5289746602363005E-003   0.00000000    
 -0.13673191118965758       -5.1377940324071189E-003   0.00000000    
 -0.13504156970178552       -1.9831577592581834E-002   0.00000000    
 -0.13126051001907035       -3.4299307991368155E-002   0.00000000    