 <VTKFile type="UnstructuredGrid" version="0.1" byte_order="BigEndian">
 <UnstructuredGrid>
 <Piece NumberOfPoints="        2601 " NumberOfCells="        2500 ">
 <PointData Scalars="scalars">
 <DataArray type="Float32" NumberOfComponents="3" Name="Velocity" Format="ascii">
   0.0000000000000000        0.0000000000000000        0.00000000    
  -7.9232245803345550E-002   0.0000000000000000        0.00000000    
 -0.15754763497489080        0.0000000000000000        0.00000000    
 -0.23393746493139653        0.0000000000000000        0.00000000    
 -0.30756931110997904        0.0000000000000000        0.00000000    
 -0.37734617745344745        0.0000000000000000        0.00000000    
 -0.44251193139162531        0.0000000000000000        0.00000000    
 -0.50190576925845731        0.0000000000000000        0.00000000    
 -0.55484931650715830        0.0000000000000000        0.00000000    
 -0.60017225432265187        0.0000000000000000        0.00000000    
 -0.63729478143156826        0.0000000000000000        0.00000000    
 -0.66512656495261679        0.0000000000000000        0.00000000    
 -0.68323357860749545        0.0000000000000000        0.00000000    
 -0.69072799977584809        0.0000000000000000        0.00000000    
 -0.68739582595033522        0.0000000000000000        0.00000000    
 -0.67269300833435797        0.0000000000000000        0.00000000    
 -0.64671712983665464        0.0000000000000000        0.00000000    
 -0.60939983866519432        0.0000000000000000        0.00000000    
 -0.56123734777538337        0.0000000000000000        0.00000000    
 -0.50272238351579313        0.0000000000000000        0.00000000    
 -0.43480169331977592        0.0000000000000000        0.00000000    
 -0.35853352572620134        0.0000000000000000        0.00000000    
 -0.27530157182298348        0.0000000000000000        0.00000000    
 -0.18663641674357831        0.0000000000000000        0.00000000    
  -9.4261521203170384E-002   0.0000000000000000        0.00000000    
   9.9426096528276629E-009   0.0000000000000000        0.00000000    
   9.4261541008976102E-002   0.0000000000000000        0.00000000    
  0.18663643630373838        0.0000000000000000        0.00000000    
  0.27530159078802358        0.0000000000000000        0.00000000    
  0.35853354364571755        0.0000000000000000        0.00000000    
  0.43480171012406221        0.0000000000000000        0.00000000    
  0.50272239931196927        0.0000000000000000        0.00000000    
  0.56123736279457592        0.0000000000000000        0.00000000    
  0.60939985258203511        0.0000000000000000        0.00000000    
  0.64671714272335579        0.0000000000000000        0.00000000    
  0.67269302023649613        0.0000000000000000        0.00000000    
  0.68739583721781050        0.0000000000000000        0.00000000    
  0.69072801020865493        0.0000000000000000        0.00000000    
  0.68323358780068522        0.0000000000000000        0.00000000    
  0.66512657332931324        0.0000000000000000        0.00000000    
  0.63729478895984248        0.0000000000000000        0.00000000    
  0.60017226085823872        0.0000000000000000        0.00000000    
  0.55484932207171045        0.0000000000000000        0.00000000    
  0.50190577392683366        0.0000000000000000        0.00000000    
  0.44251193513493781        0.0000000000000000        0.00000000    
  0.37734618042018286        0.0000000000000000        0.00000000    
  0.30756931338719568        0.0000000000000000        0.00000000    
  0.23393746666009896        0.0000000000000000        0.00000000    
  0.15754763620921769        0.0000000000000000        0.00000000    
   7.9232246380411001E-002   0.0000000000000000        0.00000000    
   0.0000000000000000        0.0000000000000000        0.00000000    
   0.0000000000000000        7.9504528336800939E-002   0.00000000    
  -7.9295249548186952E-002   7.9024433246105252E-002   0.00000000    
 -0.15763181046362248        7.7628982908966623E-002   0.00000000    
 -0.23414072046441636        7.5271222776949004E-002   0.00000000    
 -0.30776955032000625        7.1990918500621850E-002   0.00000000    
 -0.37772914306800792        6.7747005166048313E-002   0.00000000    
 -0.44288530520383612        6.2576374690616332E-002   0.00000000    
 -0.50252310338752093        5.6456724168515132E-002   0.00000000    
 -0.55546422780506566        4.9429409233107222E-002   0.00000000    
 -0.60107695610641720        4.1507717376672172E-002   0.00000000    
 -0.63821002406899952        3.2749336875428900E-002   0.00000000    
 -0.66634747149676443        2.3221351798005618E-002   0.00000000    
 -0.68447244150274422        1.3012088095718769E-002   0.00000000    
 -0.69224565441101993        2.2570006186817472E-003   0.00000000    
 -0.68892091165494074       -8.9124641539249545E-003   0.00000000    
 -0.67442124183440710       -2.0288571876410422E-002   0.00000000    
 -0.64841495180459519       -3.1692146836794048E-002   0.00000000    
 -0.61118205893614364       -4.2856588963928549E-002   0.00000000    
 -0.56292231964149475       -5.3564194459695402E-002   0.00000000    
 -0.50434906892370091       -6.3522575148596466E-002   0.00000000    
 -0.43624449256055031       -7.2501247287301424E-002   0.00000000    
 -0.35978040434356323       -8.0229565493837016E-002   0.00000000    
 -0.27627779375735501       -8.6503556869305595E-002   0.00000000    
 -0.18731409286986520       -9.1123857670866004E-002   0.00000000    
  -9.4607007768217274E-002  -9.3956682019456519E-002   0.00000000    
   9.9271761829071333E-009  -9.4910426110740867E-002   0.00000000    
   9.4607027545295097E-002  -9.3956681862768385E-002   0.00000000    
  0.18731411235919701       -9.1123857294162003E-002   0.00000000    
  0.27627781259070883       -8.6503555994911441E-002   0.00000000    
  0.35978042229174573       -8.0229564437536413E-002   0.00000000    
  0.43624450945302123       -7.2501246172659711E-002   0.00000000    
  0.50434908480937479       -6.3522574248330230E-002   0.00000000    
  0.56292233444653428       -5.3564193502343628E-002   0.00000000    
  0.61118207284150838       -4.2856587919253196E-002   0.00000000    
  0.64841496477952931       -3.1692145920899015E-002   0.00000000    
  0.67442125379650253       -2.0288570794903427E-002   0.00000000    
  0.68892092253023240       -8.9124635139648592E-003   0.00000000    
  0.69224566469560678        2.2570014040956174E-003   0.00000000    
  0.68447245095375531        1.3012089383498422E-002   0.00000000    
  0.66634747956955420        2.3221352704940891E-002   0.00000000    
  0.63821003120241726        3.2749337756288965E-002   0.00000000    
  0.60107696259547316        4.1507718132862470E-002   0.00000000    
  0.55546423360018837        4.9429410141885226E-002   0.00000000    
  0.50252310819937684        5.6456725139180389E-002   0.00000000    
  0.44288530911496177        6.2576375545745799E-002   0.00000000    
  0.37772914611687686        6.7747005949753220E-002   0.00000000    
  0.30776955270114670        7.1990919074164855E-002   0.00000000    
  0.23414072231435942        7.5271223283118929E-002   0.00000000    
  0.15763181167373425        7.7628983537003982E-002   0.00000000    
   7.9295250164071671E-002   7.9024433869556918E-002   0.00000000    
   0.0000000000000000        7.9504528906299984E-002   0.00000000    
   0.0000000000000000       0.15908336599446596        0.00000000    
  -7.9431109739936695E-002  0.15817335940535024        0.00000000    
 -0.15796200828366333       0.15534892055887992        0.00000000    
 -0.23459560784768899       0.15069519872819614        0.00000000    
 -0.30851790787995864       0.14411947594296479        0.00000000    
 -0.37863523557190099       0.13569677104983890        0.00000000    
 -0.44420808814791413       0.12535702554043301        0.00000000    
 -0.50406738860015943       0.11317457306801046        0.00000000    
 -0.55754555302455877        9.9132249122965671E-002   0.00000000    
 -0.60344973909785737        8.3323190640792799E-002   0.00000000    
 -0.64120105669659966        6.5819646533733733E-002   0.00000000    
 -0.66967200963629780        4.6760838485441707E-002   0.00000000    
 -0.68841692216038530        2.6343878315018540E-002   0.00000000    
 -0.69650013252045984        4.7830265112760407E-003   0.00000000    
 -0.69368402380971106       -1.7577950365388555E-002   0.00000000    
 -0.67937557165965534       -4.0429818084879790E-002   0.00000000    
 -0.65364213415864569       -6.3289240290310855E-002   0.00000000    
 -0.61637892699874330       -8.5754209224791919E-002   0.00000000    
 -0.56805515011990415      -0.10724870560679327        0.00000000    
 -0.50915271526667494      -0.12731236619867961        0.00000000    
 -0.44060619818431862      -0.14536116760323811        0.00000000    
 -0.36349491235984233      -0.16094363824588828        0.00000000    
 -0.27921429862898933      -0.17357132839290965        0.00000000    
 -0.18934341708639235      -0.18288928924908512        0.00000000    
  -9.5643665927762203E-002 -0.18859670786129318        0.00000000    
   9.9510520990671348E-009 -0.19051971524938757        0.00000000    
   9.5643685672304524E-002 -0.18859670746976864        0.00000000    
  0.18934343635959236      -0.18288928834812868        0.00000000    
  0.27921431726718282      -0.17357132675178336        0.00000000    
  0.36349493017096340      -0.16094363624407662        0.00000000    
  0.44060621514915999      -0.14536116553211542        0.00000000    
  0.50915273110152814      -0.12731236411810828        0.00000000    
  0.56805516473375328      -0.10724870352810835        0.00000000    
  0.61637894066103549       -8.5754207450216793E-002   0.00000000    
  0.65364214705821033       -6.3289238411156815E-002   0.00000000    
  0.67937558365609896       -4.0429816050671363E-002   0.00000000    
  0.69368403504981757       -1.7577948834988470E-002   0.00000000    
  0.69650014280838224        4.7830279491396961E-003   0.00000000    
  0.68841693184856134        2.6343880383671258E-002   0.00000000    
  0.66967201851924851        4.6760840794951276E-002   0.00000000    
  0.64120106417053313        6.5819648360409017E-002   0.00000000    
  0.60344974565822973        8.3323192009092051E-002   0.00000000    
  0.55754555879939427        9.9132250899105184E-002   0.00000000    
  0.50406739367091813       0.11317457485865851        0.00000000    
  0.44420809233614639       0.12535702735883708        0.00000000    
  0.37863523904790025       0.13569677244475922        0.00000000    
  0.30851791084838226       0.14411947708059722        0.00000000    
  0.23459561004236498       0.15069519997522313        0.00000000    
  0.15796200979523600       0.15534892176899526        0.00000000    
   7.9431110555010731E-002  0.15817336073745017        0.00000000    
   0.0000000000000000       0.15908336728627598        0.00000000    
   0.0000000000000000       0.23889053617429371        0.00000000    
  -7.9666416664072842E-002  0.23746505861348163        0.00000000    
 -0.15840352738231889       0.23332657344445201        0.00000000    
 -0.23537864719628870       0.22632760767666482        0.00000000    
 -0.30955553717969114       0.21658759901231087        0.00000000    
 -0.38018164375160374       0.20397342350740849        0.00000000    
 -0.44611917733864792       0.18859209976247968        0.00000000    
 -0.50668259645033653       0.17036355785008556        0.00000000    
 -0.56066380694213025       0.14940397767601682        0.00000000    
 -0.60744488481118641       0.12573806307799923        0.00000000    
 -0.64581468001464482        9.9527222681130748E-002   0.00000000    
 -0.67524797063728803        7.0958840079332397E-002   0.00000000    
 -0.69464055115664936        4.0284702481816426E-002   0.00000000    
 -0.70361777313864537        7.9039656518828799E-003   0.00000000    
 -0.70133193077956801       -2.5799511198100106E-002   0.00000000    
 -0.68764991031773359       -6.0197402281504900E-002   0.00000000    
 -0.66214885268320467       -9.4754825264980039E-002   0.00000000    
 -0.62504731245809819      -0.12865204738770789        0.00000000    
 -0.57649356372068428      -0.16122707034362618        0.00000000    
 -0.51715691251194906      -0.19157176631740705        0.00000000    
 -0.44782950230701751      -0.21897437487704310        0.00000000    
 -0.36967913723297341      -0.24259076315757400        0.00000000    
 -0.28410050011845128      -0.26178213657700500        0.00000000    
 -0.19272010011498628      -0.27592844561460472        0.00000000    
  -9.7372650292028379E-002 -0.28460343599191879        0.00000000    
   9.7499566129790419E-009 -0.28752800681281698        0.00000000    
   9.7372669585349084E-002 -0.28460343523623999        0.00000000    
  0.19272011894856980      -0.27592844414672252        0.00000000    
  0.28410051835984163      -0.26178213427560448        0.00000000    
  0.36967915499633419      -0.24259076051093534        0.00000000    
  0.44782951923933073      -0.21897437177341941        0.00000000    
  0.51715692834321980      -0.19157176303830561        0.00000000    
  0.57649357862179318      -0.16122706731230518        0.00000000    
  0.62504732637004135      -0.12865204462504520        0.00000000    
  0.66214886542228080       -9.4754822438318023E-002   0.00000000    
  0.68764992249057533       -6.0197399725448776E-002   0.00000000    
  0.70133194233166596       -2.5799508812465771E-002   0.00000000    
  0.70361778370253070        7.9039681749099883E-003   0.00000000    
  0.69464056072480129        4.0284705060785776E-002   0.00000000    
  0.67524797962408389        7.0958843265107624E-002   0.00000000    
  0.64581468850129753        9.9527225540701245E-002   0.00000000    
  0.60744489226429721       0.12573806536050719        0.00000000    
  0.56066381342830185       0.14940398029042379        0.00000000    
  0.50668260196139758       0.17036356048165444        0.00000000    
  0.44611918213609170       0.18859210233610704        0.00000000    
  0.38018164784846908       0.20397342555991727        0.00000000    
  0.30955554038924016       0.21658760088724763        0.00000000    
  0.23537864972880404       0.22632760963717036        0.00000000    
  0.15840352917108358       0.23332657536794316        0.00000000    
   7.9666417574788359E-002  0.23746506080675392        0.00000000    
   0.0000000000000000       0.23889053833072157        0.00000000    
   0.0000000000000000       0.31886328062085001        0.00000000    
  -7.9917399024249644E-002  0.31707741148368962        0.00000000    
 -0.15898575676758919       0.31152097046440430        0.00000000    
 -0.23624421101171153       0.30236806584815895        0.00000000    
 -0.31093581950291227       0.28941691985529938        0.00000000    
 -0.38197883244835679       0.27281450213446368        0.00000000    
 -0.44868659778055359       0.25239759903953346        0.00000000    
 -0.50986756292978008       0.22830372094792412        0.00000000    
 -0.56489079269472475       0.20046953164162404        0.00000000    
 -0.61249755517177795       0.16906162512754672        0.00000000    
 -0.65211656974870769       0.13419374448836224        0.00000000    
 -0.68250809204877105        9.6118403897767088E-002   0.00000000    
 -0.70319533097650866        5.5206229012105403E-002   0.00000000    
 -0.71309444262791266        1.1860042099172899E-002   0.00000000    
 -0.71189779989772151       -3.3236805299574262E-002   0.00000000    
 -0.69885738712950551       -7.9481275637574608E-002   0.00000000    
 -0.67394652987731773      -0.12588160291729189        0.00000000    
 -0.63694306059622763      -0.17162901702175171        0.00000000    
 -0.58822808248048686      -0.21551756708574082        0.00000000    
 -0.52824763640150452      -0.25659710790464885        0.00000000    
 -0.45789119910714121      -0.29363162328549125        0.00000000    
 -0.37830502340065492      -0.32566879925631320        0.00000000    
 -0.29091288729128378      -0.35167361847453743        0.00000000    
 -0.19744821941718921      -0.37088077717133877        0.00000000    
  -9.9784113890884638E-002 -0.38266140590791048        0.00000000    
   9.3739668139189163E-009 -0.38662556660717029        0.00000000    
   9.9784132641508122E-002 -0.38266140494832890        0.00000000    
  0.19744823767072398      -0.37088077495053229        0.00000000    
  0.29091290496681860      -0.35167361575586720        0.00000000    
  0.37830504034975515      -0.32566879582248071        0.00000000    
  0.45789121526741150      -0.29363161934918330        0.00000000    
  0.52824765188491696      -0.25659710368033090        0.00000000    
  0.58822809720517688      -0.21551756331075167        0.00000000    
  0.63694307459337063      -0.17162901328604319        0.00000000    
  0.67394654329857206      -0.12588159931491916        0.00000000    
  0.69885739971521021       -7.9481272455444826E-002   0.00000000    
  0.71189781139467045       -3.3236801830512960E-002   0.00000000    
  0.71309445316234432        1.1860045489503873E-002   0.00000000    
  0.70319534080910928        5.5206232421335356E-002   0.00000000    
  0.68250810110653504        9.6118407609475348E-002   0.00000000    
  0.65211657825021496       0.13419374787839999        0.00000000    
  0.61249756310339876       0.16906162848301667        0.00000000    
  0.56489079977887879       0.20046953499747572        0.00000000    
  0.50986756911191544       0.22830372471517829        0.00000000    
  0.44868660299976265       0.25239760215401974        0.00000000    
  0.38197883690163614       0.27281450511262206        0.00000000    
  0.31093582297611322       0.28941692267198188        0.00000000    
  0.23624421350041108       0.30236806852845532        0.00000000    
  0.15898575850274418       0.31152097316540034        0.00000000    
   7.9917399957553314E-002  0.31707741457935806        0.00000000    
   0.0000000000000000       0.31886328371890149        0.00000000    
   0.0000000000000000       0.39918676172891587        0.00000000    
  -8.0188906400454341E-002  0.39686145622122315        0.00000000    
 -0.15950950547063394       0.39012710281758117        0.00000000    
 -0.23720424387104633       0.37871634599292503        0.00000000    
 -0.31227240832653069       0.36282963207957025        0.00000000    
 -0.38403904435496350       0.34221265747107293        0.00000000    
 -0.45136362163926996       0.31703300418912067        0.00000000    
 -0.51362656289121622       0.28711343884872914        0.00000000    
 -0.56956482381353735       0.25262252007880892        0.00000000    
 -0.61859766894182733       0.21354945838522513        0.00000000    
 -0.65939594868747498       0.17012441837738190        0.00000000    
 -0.69142556097064123       0.12261007558117196        0.00000000    
 -0.71340265443758910        7.1380099211460921E-002   0.00000000    
 -0.72488760083071413        1.7071437417369727E-002   0.00000000    
 -0.72481628558929656       -3.9714952795701010E-002   0.00000000    
 -0.71294149780161509       -9.7917124977919601E-002   0.00000000    
 -0.68864011833958971      -0.15665678833677713        0.00000000    
 -0.65199733551499972      -0.21449888374400813        0.00000000    
 -0.60304535609671339      -0.27031345965328052        0.00000000    
 -0.54234893493292868      -0.32247688608965525        0.00000000    
 -0.47072064122317503      -0.36973538112664811        0.00000000    
 -0.38930319910866845      -0.41056746563138552        0.00000000    
 -0.29965345064066340      -0.44381564420577158        0.00000000    
 -0.20348523031211338      -0.46837044804650285        0.00000000    
 -0.10288749627216584      -0.48343238361193258        0.00000000    
   9.0394476231542804E-009 -0.48852502679290027        0.00000000    
  0.10288751405110906      -0.48343238235508873        0.00000000    
  0.20348524797356807      -0.46837044550838081        0.00000000    
  0.29965346787866654      -0.44381564080296526        0.00000000    
  0.38930321540829688      -0.41056746121688059        0.00000000    
  0.47072065674860697      -0.36973537660798556        0.00000000    
  0.54234894999852523      -0.32247688131099767        0.00000000    
  0.60304537068214270      -0.27031345519374061        0.00000000    
  0.65199734972858869      -0.21449887959346225        0.00000000    
  0.68864013186290629      -0.15665678388307994        0.00000000    
  0.71294151038582865       -9.7917120872461294E-002   0.00000000    
  0.72481629736580566       -3.9714948353507230E-002   0.00000000    
  0.72488761159594595        1.7071441808363515E-002   0.00000000    
  0.71340266400416485        7.1380103520515908E-002   0.00000000    
  0.69142556999489202       0.12261007971021713        0.00000000    
  0.65939595726973588       0.17012442234832989        0.00000000    
  0.61859767671158250       0.21354946254217766        0.00000000    
  0.56956483078326370       0.25262252428067439        0.00000000    
  0.51362656915198501       0.28711344338094646        0.00000000    
  0.45136362705834948       0.31703300834326015        0.00000000    
  0.38403904864503130       0.34221266130451983        0.00000000    
  0.31227241170480685       0.36282963593283535        0.00000000    
  0.23720424652101213       0.37871634934945203        0.00000000    
  0.15950950738096067       0.39012710633553072        0.00000000    
   8.0188907397878165E-002  0.39686146021469265        0.00000000    
   0.0000000000000000       0.39918676585989415        0.00000000    
   0.0000000000000000       0.47959664991944090        0.00000000    
  -8.0363571803530640E-002  0.47700520566138610        0.00000000    
 -0.15996650545885505       0.46890804530278390        0.00000000    
 -0.23791214883995171       0.45557694420949701        0.00000000    
 -0.31354356257567495       0.43666977029952248        0.00000000    
 -0.38580505169103008       0.41240180207800980        0.00000000    
 -0.45410711231541090       0.38247165406881978        0.00000000    
 -0.51722895354832765       0.34706072718289988        0.00000000    
 -0.57461491027030298       0.30600060361628972        0.00000000    
 -0.62490329493724750       0.25949375773384625        0.00000000    
 -0.66755287602306290       0.20762913110785114        0.00000000    
 -0.70113584119340966       0.15071909013782664        0.00000000    
 -0.72513859004497927        8.9252074704459838E-002   0.00000000    
 -0.73821515456927134        2.3762118913337203E-002   0.00000000    
 -0.73994668108277117       -4.4744279195337439E-002   0.00000000    
 -0.72929814789656333      -0.11540997756569304        0.00000000    
 -0.70607705303024548      -0.18668527033731200        0.00000000    
 -0.66983578608081251      -0.25735331367879255        0.00000000    
 -0.62078569000178951      -0.32545996945541888        0.00000000    
 -0.55930088460451932      -0.38951046888855140        0.00000000    
 -0.48616547867179266      -0.44746436575033682        0.00000000    
 -0.40265293128830448      -0.49776733978560050        0.00000000    
 -0.31020721657676087      -0.53871010376317119        0.00000000    
 -0.21085356512198455      -0.56899673180487742        0.00000000    
 -0.10663935343651540      -0.58761691776608216        0.00000000    
   8.1742981962903216E-009 -0.59386623210024836        0.00000000    
  0.10663936992536029      -0.58761691634953506        0.00000000    
  0.21085358141570251      -0.56899672911384269        0.00000000    
  0.31020723251568527      -0.53871009973503192        0.00000000    
  0.40265294697468168      -0.49776733480550761        0.00000000    
  0.48616549395201808      -0.44746436061691330        0.00000000    
  0.55930089940995509      -0.38951046379002918        0.00000000    
  0.62078570441269909      -0.32545996444105019        0.00000000    
  0.66983579950133942      -0.25735330872085110        0.00000000    
  0.70607706605414644      -0.18668526560411175        0.00000000    
  0.72929816062254060      -0.11540997250271000        0.00000000    
  0.73994669290971582       -4.4744274003930391E-002   0.00000000    
  0.73821516533772147        2.3762124624890323E-002   0.00000000    
  0.72513860000188923        8.9252079703152590E-002   0.00000000    
  0.70113585033990722       0.15071909492997210        0.00000000    
  0.66755288406192259       0.20762913596532770        0.00000000    
  0.62490330229371460       0.25949376249916922        0.00000000    
  0.57461491691425726       0.30600060872232676        0.00000000    
  0.51722895951533898       0.34706073219684674        0.00000000    
  0.45410711737013221       0.38247165949520984        0.00000000    
  0.38580505566829526       0.41240180684567446        0.00000000    
  0.31354356595997612       0.43666977472332580        0.00000000    
  0.23791215135814162       0.45557694858990866        0.00000000    
  0.15996650697279691       0.46890804954073617        0.00000000    
   8.0363572540227801E-002  0.47700521062500129        0.00000000    
   0.0000000000000000       0.47959665481439534        0.00000000    
   0.0000000000000000       0.56027188451159593        0.00000000    
  -8.0430896959717807E-002  0.55712553840435475        0.00000000    
 -0.16008876730319843       0.54804961499547200        0.00000000    
 -0.23833309353909307       0.53262644208706922        0.00000000    
 -0.31422311018668564       0.51114280034993409        0.00000000    
 -0.38720920365466249       0.48317745119851652        0.00000000    
 -0.45615777039448835       0.44894772820821172        0.00000000    
 -0.52056494705595924       0.40811476542588099        0.00000000    
 -0.57909844513159670       0.36086711367084068        0.00000000    
 -0.63125806423500019       0.30707634313233817        0.00000000    
 -0.67554528645451783       0.24698443940339726        0.00000000    
 -0.71144020165595523       0.18084275044316431        0.00000000    
 -0.73737976702257724       0.10907181525085768        0.00000000    
 -0.75284662137696590        3.2486881478847505E-002   0.00000000    
 -0.75641729528325397       -4.8165758970159504E-002   0.00000000    
 -0.74767429018445797      -0.13137895620455733        0.00000000    
 -0.72564348586483862      -0.21596711305742697        0.00000000    
 -0.69018732770892599      -0.29976782065856578        0.00000000    
 -0.64112622383279860      -0.38115558910155400        0.00000000    
 -0.57882661268500391      -0.45759819460555157        0.00000000    
 -0.50413579595318170      -0.52720179340923379        0.00000000    
 -0.41811063685164246      -0.58756655100906507        0.00000000    
 -0.32259824532532350      -0.63686793263488095        0.00000000    
 -0.21940600890370179      -0.67338372574150818        0.00000000    
 -0.11106327489111431      -0.69578580525812617        0.00000000    
   7.3825155593618392E-009 -0.70339892459209363        0.00000000    
  0.11106328961463427      -0.69578580394031619        0.00000000    
  0.21940602370277593      -0.67338372283216275        0.00000000    
  0.32259826009635684      -0.63686792844221829        0.00000000    
  0.41811065141284143      -0.58756654573111511        0.00000000    
  0.50413581032917387      -0.52720178798230766        0.00000000    
  0.57882662673615415      -0.45759818900089949        0.00000000    
  0.64112623714028083      -0.38115558345512029        0.00000000    
  0.69018734097823486      -0.29976781530413210        0.00000000    
  0.72564349837491404      -0.21596710756485871        0.00000000    
  0.74767430184686867      -0.13137895075535330        0.00000000    
  0.75641730617828984       -4.8165752498564980E-002   0.00000000    
  0.75284663139915586        3.2486887841554131E-002   0.00000000    
  0.73737977617973915       0.10907182127496630        0.00000000    
  0.71144020982848810       0.18084275600493596        0.00000000    
  0.67554529398242114       0.24698444524351590        0.00000000    
  0.63125807073207219       0.30707634862824335        0.00000000    
  0.57909845107839897       0.36086711930907872        0.00000000    
  0.52056495234773770       0.40811477123959417        0.00000000    
  0.45615777515527633       0.44894773427811685        0.00000000    
  0.38720920758039601       0.48317745723517708        0.00000000    
  0.31422311285276355       0.51114280535736167        0.00000000    
  0.23833309580452666       0.53262644715061369        0.00000000    
  0.16008876881735726       0.54804962030581528        0.00000000    
   8.0430897617328551E-002  0.55712554392937241        0.00000000    
   0.0000000000000000       0.56027189023945634        0.00000000    
   0.0000000000000000       0.64067877800840722        0.00000000    
  -8.0239617754350567E-002  0.63739019758162652        0.00000000    
 -0.15984546626122564       0.62704971236947604        0.00000000    
 -0.23801611781836896       0.61004235994652534        0.00000000    
 -0.31424112030266882       0.58584293828934764        0.00000000    
 -0.38751281149751055       0.55473613405680466        0.00000000    
 -0.45739340096786596       0.51621923642020717        0.00000000    
 -0.52263943918934541       0.47049750613261188        0.00000000    
 -0.58282936064852875       0.41720882478546606        0.00000000    
 -0.63647618393341576       0.35654210555003063        0.00000000    
 -0.68312043563675828       0.28845117987782554        0.00000000    
 -0.72107530694023980       0.21322682395996903        0.00000000    
 -0.74981525469450383       0.13136827982331234        0.00000000    
 -0.76759810430088027        4.3441144009860329E-002   0.00000000    
 -0.77387116902565822       -4.9275262460954802E-002   0.00000000    
 -0.76713032493208433      -0.14575228362326220        0.00000000    