 <VTKFile type="UnstructuredGrid" version="0.1" byte_order="BigEndian">
 <UnstructuredGrid>
 <Piece NumberOfPoints="         651 " NumberOfCells="         600 ">
 <PointData Scalars="scalars">
 <DataArray type="Float32" NumberOfComponents="3" Name="Velocity" Format="ascii">
   0.0000000000000000        0.0000000000000000        0.00000000    
  -2.7671941174213419        0.0000000000000000        0.00000000    
  -5.5098098078420810        0.0000000000000000        0.00000000    
  -8.2029298467728058        0.0000000000000000        0.00000000    
  -10.820976250178154        0.0000000000000000        0.00000000    
  -13.337315496529879        0.0000000000000000        0.00000000    
  -15.723920662113626        0.0000000000000000        0.00000000    
  -17.950852162846545        0.0000000000000000        0.00000000    
  -19.985856903601590        0.0000000000000000        0.00000000    
  -21.793568105924912        0.0000000000000000        0.00000000    
  -23.334928303383656        0.0000000000000000        0.00000000    
  -24.565610212832315        0.0000000000000000        0.00000000    
  -25.434873572644140        0.0000000000000000        0.00000000    
  -25.880500008173101        0.0000000000000000        0.00000000    
  -25.824548822345996        0.0000000000000000        0.00000000    
  -25.121858863713395        0.0000000000000000        0.00000000    
  -23.919492688082567        0.0000000000000000        0.00000000    
  -22.525630175812559        0.0000000000000000        0.00000000    
  -21.019366524152783        0.0000000000000000        0.00000000    
  -19.434191934372631        0.0000000000000000        0.00000000    
  -17.790902745981221        0.0000000000000000        0.00000000    
  -16.103205251280311        0.0000000000000000        0.00000000    
  -14.381005940174145        0.0000000000000000        0.00000000    
  -12.631693371707108        0.0000000000000000        0.00000000    
  -10.861024732630369        0.0000000000000000        0.00000000    
  -9.0735917998735669        0.0000000000000000        0.00000000    
  -7.2731763323040619        0.0000000000000000        0.00000000    
  -5.4629671184263806        0.0000000000000000        0.00000000    
  -3.6457397126558577        0.0000000000000000        0.00000000    
  -1.8239809260793121        0.0000000000000000        0.00000000    
   0.0000000000000000        0.0000000000000000        0.00000000    
   0.0000000000000000        6.1890791227434114        0.00000000    
  -2.7219493568448110        6.1614937068219255        0.00000000    
  -5.4192693659199715        6.0783615926804293        0.00000000    
  -8.0669936843132142        5.9385382234324355        0.00000000    
  -10.639446736758082        5.7400855640273329        0.00000000    
  -13.109903202872525        5.4802047667006555        0.00000000    
  -15.450124447968671        5.1551546680860403        0.00000000    
  -17.629969841898159        4.7600933549435549        0.00000000    
  -19.616731140266424        4.2888802151126848        0.00000000    
  -21.374608452444949        3.7336939506690472        0.00000000    
  -22.863561169886879        3.0845101148094471        0.00000000    
  -24.038427753168520        2.3279739831469111        0.00000000    
  -24.846331644077072        1.4456523348907293        0.00000000    
  -25.225048036220180       0.40911902937515904        0.00000000    
  -25.094347453574308      -0.82908550744377207        0.00000000    
  -24.367688826509767       -2.3869488134268009        0.00000000    
  -23.228582060517226       -2.8813653104940249        0.00000000    
  -21.922837624924821       -3.1927503100480998        0.00000000    
  -20.494436786536163       -3.4102447991637925        0.00000000    
  -18.977355662521365       -3.5698305638548344        0.00000000    
  -17.393703038069329       -3.6907885005216658        0.00000000    
  -15.759123479119259       -3.7843348776680847        0.00000000    
  -14.084909751592978       -3.8575944668967996        0.00000000    
  -12.379602654241737       -3.9152997656485051        0.00000000    
  -10.649815305423600       -3.9607262149909279        0.00000000    
  -8.9008409862708149       -3.9961901097624857        0.00000000    
  -7.1370146227497075       -4.0233539941522931        0.00000000    
  -5.3619963510974120       -4.0434078563568709        0.00000000    
  -3.5789593107724893       -4.0571871554584273        0.00000000    
  -1.7907483955673136       -4.0652446573055681        0.00000000    
   0.0000000000000000       -4.0678963245324331        0.00000000    
   0.0000000000000000        12.179517650065229        0.00000000    
  -2.5906249064197535        12.124347283908000        0.00000000    
  -5.1566637202039125        11.958065343452395        0.00000000    
  -7.6731690174445291        11.678351119566569        0.00000000    
  -10.114484962045143        11.281252922637988        0.00000000    
  -12.453827808071216        10.761085838875005        0.00000000    
  -14.662916106519310        10.110220079236939        0.00000000    
  -16.711425562081754        9.3188263647802945        0.00000000    
  -18.566556564789046        8.3744048655270547        0.00000000    
  -20.192248873446179        7.2612009548706409        0.00000000    
  -21.548668325065037        5.9590904975229906        0.00000000    
  -22.591031717345103        4.4421610355999936        0.00000000    
  -23.269425033435446        2.6756340016642239        0.00000000    
  -23.527770998870725       0.61252766872638775        0.00000000    
  -23.309981398797579       -1.8165970561988416        0.00000000    
  -22.576130611071072       -4.6855834510864689        0.00000000    
  -21.525621913594009       -5.5093654705675581        0.00000000    
  -20.365288599613223       -6.1134250754168304        0.00000000    
  -19.095582439208933       -6.5603107871498585        0.00000000    
  -17.733046763972613       -6.8989023806628573        0.00000000    
  -16.295224400670058       -7.1600353925648106        0.00000000    
  -14.796875566802941       -7.3641768765126274        0.00000000    
  -13.250040764204259       -7.5251116680807355        0.00000000    
  -11.664388041276666       -7.6524421452826372        0.00000000    
  -10.047778706888440       -7.7529763801004439        0.00000000    
  -8.4066695510354332       -7.8316277710436264        0.00000000    
  -6.7464767583051151       -7.8919594190287476        0.00000000    
  -5.0718309542706450       -7.9365466095373307        0.00000000    
  -3.3867986534308199       -7.9672044277017582        0.00000000    
  -1.6950483586951390       -7.9851400917693223        0.00000000    
   0.0000000000000000       -7.9910435950021901        0.00000000    
   0.0000000000000000        17.790726029410269        0.00000000    
  -2.3849988659481212        17.708292403686794        0.00000000    
  -4.7459474176284928        17.459841773898646        0.00000000    
  -7.0584648859474939        17.041875922596716        0.00000000    
  -9.2974821503906835        16.448477850590084        0.00000000    
  -11.436922757374546        15.671123660144994        0.00000000    
  -13.449294524856088        14.698467415912866        0.00000000    
  -15.305388912288279        13.515937683735636        0.00000000    
  -16.973814489574956        12.105295835812482        0.00000000    
  -18.420804501761140        10.443845213509324        0.00000000    
  -19.609800797318130        8.5036316758734607        0.00000000    
  -20.501806339801423        6.2499499518822779        0.00000000    
  -21.055694789452289        3.6404790611960123        0.00000000    
  -21.230837573432201       0.62303229648222858        0.00000000    
  -20.990355031549225       -2.8582140011612061        0.00000000    
  -20.292714734788795       -6.8648214493027844        0.00000000    
  -19.320116498705296       -7.8821180774144413        0.00000000    
  -18.276886029109061       -8.6986909717021543        0.00000000    
  -17.158782506990132       -9.3476166819142836        0.00000000    
  -15.965441797119427       -9.8623183581398663        0.00000000    
  -14.703006288620186       -10.272199614490644        0.00000000    
  -13.380103355017264       -10.599829137742164        0.00000000    
  -12.005668912981522       -10.862315213851460        0.00000000    
  -10.588118912923305       -11.072444712715559        0.00000000    
  -9.1350216376943862       -11.239813691212902        0.00000000    
  -7.6531006538009221       -11.371608281387475        0.00000000    
  -6.1483063425925817       -11.473199878304429        0.00000000    
  -4.6259562622153139       -11.548546897381248        0.00000000    
  -3.0908634838666158       -11.600485575277254        0.00000000    
  -1.5474759520169501       -11.630919039452721        0.00000000    
   0.0000000000000000       -11.640944353716623        0.00000000    
   0.0000000000000000        22.872714952425909        0.00000000    
  -2.1206862391800150        22.764094977438198        0.00000000    
  -4.2187115503580364        22.436730371604490        0.00000000    
  -6.2711335486467465        21.886101134671165        0.00000000    
  -8.2544705607282740        21.104549770289267        0.00000000    
  -10.144407962841033        20.081152242874889        0.00000000    
  -11.915591373085093        18.801437991673929        0.00000000    
  -13.541346143742409        17.247127721607246        0.00000000    
  -14.993605441062764        15.395646751862817        0.00000000    
  -16.242730801605020        13.219753892265832        0.00000000    
  -17.257784304892990        10.686835049581587        0.00000000    
  -18.006669023941196        7.7587496593433265        0.00000000    
  -18.456969260983634        4.3911039011649935        0.00000000    
  -18.576367876769332       0.53512560676276266        0.00000000    
  -18.330439085969676       -3.8647328076705891        0.00000000    
  -17.689034192505666       -8.8711543236891703        0.00000000    
  -16.820973842273634       -10.017267026379434        0.00000000    
  -15.902920805639397       -10.976429902929906        0.00000000    
  -14.929894108805494       -11.774920748035399        0.00000000    
  -13.900730313895245       -12.435649432776476        0.00000000    
  -12.816067250078742       -12.979840317002491        0.00000000    
  -11.679199196083829       -13.426673162859885        0.00000000    
  -10.495061118516020       -13.792259363598477        0.00000000    
  -9.2693632577365790       -14.089808237958630        0.00000000    
  -8.0080424710224847       -14.329890811449019        0.00000000    
  -6.7169268999866407       -14.520863415981580        0.00000000    
  -5.4016003998216648       -14.669216556609733        0.00000000    
  -4.0673466884260909       -14.779888756992158        0.00000000    
  -2.7191723716347167       -14.856494686218818        0.00000000    
  -1.3618519252506749       -14.901502866483808        0.00000000    
   0.0000000000000000       -14.916348257083643        0.00000000    
   0.0000000000000000        27.310659352231980        0.00000000    
  -1.8134368060817527        27.177927438402342        0.00000000    
  -3.6065556627090261        26.777972270771812        0.00000000    
  -5.3588451250053852        26.105460030461050        0.00000000    
  -7.0493963420369905        25.151439398351137        0.00000000    
  -8.6567532360404709        23.903174765418711        0.00000000    
  -10.158728518243757        22.344022534584443        0.00000000    
  -11.532352570238091        20.453145536496276        0.00000000    
  -12.753752060410287        18.205361196887029        0.00000000    
  -13.798280396692256        15.570760270345337        0.00000000    
  -14.640502461746538        12.514698704541761        0.00000000    
  -15.254501272692064        8.9973739408293554        0.00000000    
  -15.613936882860807        4.9743852778219662        0.00000000    
  -15.691744779281500       0.39555888311297022        0.00000000    
  -15.462633162318829       -4.7940069992462506        0.00000000    
  -14.899688334665679       -10.651667007231151        0.00000000    
  -14.147978958437678       -11.881236231016974        0.00000000    
  -13.364155093149140       -12.941683719960114        0.00000000    
  -12.541738695169860       -13.849413898374539        0.00000000    
  -11.677249526062425       -14.621875455737815        0.00000000    
  -10.770071651029800       -15.275256397488381        0.00000000    
  -9.8211040691291576       -15.824387267832099        0.00000000    
  -8.8327155924099241       -16.282730010660259        0.00000000    
  -7.8083281235334789       -16.662029572497193        0.00000000    
  -6.7520351023831697       -16.972300549819948        0.00000000    
  -5.6683069732216920       -17.221852008397985        0.00000000    
  -4.5617692172401147       -17.417422529624670        0.00000000    
  -3.4370807406804595       -17.564302712409074        0.00000000    
  -2.2988598895163754       -17.666469864296033        0.00000000    
  -1.1516655090222645       -17.726686037612108        0.00000000    
   0.0000000000000000       -17.746579318724837        0.00000000    
   0.0000000000000000        31.022539671139196        0.00000000    
  -1.4766738645899185        30.868796135975874        0.00000000    
  -2.9362227927207551        30.405606074333967        0.00000000    
  -4.3613919849179190        29.627108206725964        0.00000000    
  -5.7346893628873028        28.523450567800065        0.00000000    
  -7.0382618595313406        27.080754711896276        0.00000000    
  -8.2538455630499019        25.280950312165370        0.00000000    
  -9.3626709495907736        23.101729001276087        0.00000000    
  -10.345508704379387        20.516311523422434        0.00000000    
  -11.182610605252234        17.493477981715987        0.00000000    
  -11.853850740298920        13.997270946879510        0.00000000    
  -12.338711496336261        9.9872357193360894        0.00000000    
  -12.616328472128385        5.4178918192407490        0.00000000    
  -12.666242660445169       0.23942703272337812        0.00000000    
  -12.466792657262289       -5.6021387921703338        0.00000000    
  -11.997158040806283       -12.166838965788145        0.00000000    
  -11.378475441812316       -13.449446219792746        0.00000000    
  -10.738088237204256       -14.577948632042718        0.00000000    
  -10.071143982023933       -15.564210459252063        0.00000000    
  -9.3743461775730452       -16.419974588879377        0.00000000    
  -8.6458749187354051       -17.157367808194479        0.00000000    
  -7.8856173376511043       -17.788032477687860        0.00000000    
  -7.0945832295751172       -18.322785620597408        0.00000000    
  -6.2747333593681756       -18.771507967198581        0.00000000    
  -5.4287448550333268       -19.142955591740265        0.00000000    
  -4.5598031126187513       -19.444704181917253        0.00000000    
  -3.6714383710027509       -19.683100966722876        0.00000000    
  -2.7673889250964390       -19.863284605423914        0.00000000    
  -1.8515148770974366       -19.989201499019817        0.00000000    
 -0.92773594956298278       -20.063644336633196        0.00000000    
   0.0000000000000000       -20.088274306199178        0.00000000    
   0.0000000000000000        33.953069466031636        0.00000000    
  -1.1206447531341766        33.782233236859575        0.00000000    
  -2.2279844688897881        33.267668410696899        0.00000000    
  -3.3086431406003500        32.403158569846980        0.00000000    
  -4.3490964684957740        31.178339298359738        0.00000000    
  -5.3356286121621244        29.578601411784064        0.00000000    
  -6.2542638022077917        27.585096127654420        0.00000000    
  -7.0907724584925171        25.174584786577928        0.00000000    
  -7.8306152318112128        22.319486918667369        0.00000000    
  -8.4590083933938214        18.987666480351859        0.00000000    
  -8.9608834031766893        15.142591526809687        0.00000000    
  -9.3209601504187596        10.743024518044049        0.00000000    
  -9.5239139710194607        5.7433873135612226        0.00000000    
  -9.5538299887046243        9.3549502152178013E-002   0.00000000    
  -9.3953388549912802       -6.2616288179377593        0.00000000    
  -9.0324897294755768       -13.380437361260682        0.00000000    
  -8.5576658603219311       -14.696237380112711        0.00000000    
  -8.0695571063909046       -15.870273373357433        0.00000000    
  -7.5638290576805485       -16.910398404329854        0.00000000    
  -7.0376594924289453       -17.825463228383846        0.00000000    
  -6.4894741331295123       -18.624356553753465        0.00000000    
  -5.9186078820363761       -19.316072357523105        0.00000000    
  -5.3253838937734388       -19.909326460639299        0.00000000    
  -4.7108679631651507       -20.412290172536292        0.00000000    
  -4.0767353487563431       -20.832445906906024        0.00000000    
  -3.4251356750741038       -21.176432056390517        0.00000000    
  -2.7585695811079338       -21.449967465312302        0.00000000    
  -2.0797933864509823       -21.657775801663174        0.00000000    
  -1.3917350686248391       -21.803558129495968        0.00000000    
 -0.69743542771889744       -21.889964477866574        0.00000000    
   0.0000000000000000       -21.918589767506639        0.00000000    
   0.0000000000000000        36.066828313379290        0.00000000    
 -0.75266823804886251        35.883428623927124        0.00000000    
  -1.4962691993515533        35.331089538719837        0.00000000    
  -2.2216942239678166        34.403425762661861        0.00000000    
  -2.9197625010860464        33.089745720776349        0.00000000    
  -3.5811791360039948        31.375079733805904        0.00000000    
  -4.1965270711748266        29.240079840861277        0.00000000    
  -4.7562285547422274        26.661073891220592        0.00000000    
  -5.2505692009900518        23.609910502537137        0.00000000    
  -5.6696619350304287        20.054086164033080        0.00000000    
  -6.0034948522856695        15.956514680888041        0.00000000    
  -6.2419352522566580        11.275764942546269        0.00000000    
  -6.3746141314733062        5.9658204644490507        0.00000000    
  -6.3913389200888311       -2.3941834407133739E-002   0.00000000    
  -6.2814206909955574       -6.7480585464368428        0.00000000    
  -6.0342517148654862       -14.266548362787175        0.00000000    
  -5.7128373759171840       -15.601662348607110        0.00000000    
  -5.3835233558910369       -16.804049642588271        0.00000000    
  -5.0436251425142444       -17.879281226697739        0.00000000    
  -4.6911056490789464       -18.833630790038526        0.00000000    
  -4.3246606709196538       -19.674107247265066        0.00000000    
  -3.9437426281269987       -20.407836327396005        0.00000000    
  -3.5483518034999761       -21.041945821993160        0.00000000    
  -3.1390240025580685       -21.583319202563068        0.00000000    
  -2.7167259453140660       -22.038385890475020        0.00000000    
  -2.2827731365420640       -22.412985160786032        0.00000000    
  -1.8387567331847181       -22.712224974897069        0.00000000    
  -1.3864741307555994       -22.940400588066925        0.00000000    
 -0.92787480706746162       -23.100913039079309        0.00000000    
 -0.46501109317145400       -23.196227111380388        0.00000000    
   0.0000000000000000       -23.227831808611604        0.00000000    
   0.0000000000000000        37.342527282813982        0.00000000    
 -0.37787366331488059        37.151448935127853        0.00000000    
 -0.75115819060288236        36.576061571845536        0.00000000    
  -1.1152483927252128        35.609862992172879        0.00000000    
  -1.4655041929061527        34.242037667570841        0.00000000    
  -1.7972422904874414        32.457385930689455        0.00000000    
  -2.1057173967570662        30.236375489321638        0.00000000    
  -2.3861267006399478        27.555027516438322        0.00000000    
  -2.6335910342037820        24.385018078582661        0.00000000    
  -2.8431732882897087        20.693497312711973        0.00000000    
  -3.0098618430977102        16.443276845503874        0.00000000    
  -3.1285713279650458        11.592590017236509        0.00000000    
  -3.1942199211744122        6.0952322031911939        0.00000000    
  -3.2015245907688294       -9.9287292094290519E-002   0.00000000    
  -3.1453120007905668       -7.0465074308837865        0.00000000    
  -3.0202590227962607       -14.805598875927254        0.00000000    
  -2.8579963776341342       -16.150885050803748        0.00000000    
  -2.6922052259622391       -17.368813574484250        0.00000000    
  -2.5214097399259190       -18.463578119630302        0.00000000    
  -2.3445855366098263       -19.440357215987589        0.00000000    
  -2.1610696455820055       -20.304792774512169        0.00000000    
  -1.9705008524148258       -21.062996182344371        0.00000000    
  -1.7728444607096729       -21.721142205126537        0.00000000    
  -1.5683165086927120       -22.285298260824781        0.00000000    
  -1.3573565431544110       -22.761237384898312        0.00000000    
  -1.1405881922503447       -23.154256277097996        0.00000000    
 -0.91878162738429148       -23.469055534091545        0.00000000    
 -0.69282197982041849       -23.709615092882711        0.00000000    
 -0.46367894715349078       -23.879118837609813        0.00000000    
 -0.23238244174086725       -23.979881803170557        0.00000000    
   0.0000000000000000       -24.013312571943267        0.00000000    
   0.0000000000000000        37.768922057112732        0.00000000    
   7.3031066397698936E-009   37.575269887713588        0.00000000    
   1.4514652919204184E-008   36.992130787759827        0.00000000    
   1.5381091392388929E-008   36.012996729911386        0.00000000    
   9.2692368788053443E-009   34.626979494787150        0.00000000    
   1.2802544381495916E-008   32.818854813596296        0.00000000    
   1.6204679270539129E-008   30.568975588568847        0.00000000    
   1.7370913697892868E-008   27.853348348942745        0.00000000    
   1.9015727226869710E-008   24.643491991790885        0.00000000    
   2.5031615780241893E-008   20.906583458141458        0.00000000    
   2.9243354879762912E-008   16.605239939299867        0.00000000    
   3.8908279246031208E-008   11.697723242120729        0.00000000    
   4.4931670818963945E-008   6.1378082996324412        0.00000000    
   5.3823105528292717E-008 -0.12542790192793232        0.00000000    
   6.0567021232998858E-008  -7.1468451634121752        0.00000000    
   6.4630746160506334E-008  -14.986630353300789        0.00000000    
   6.4176958213770985E-008  -16.334944524389059        0.00000000    
   6.0368598897781219E-008  -17.557784182845825        0.00000000    
   5.9252502638930526E-008  -18.658897352723507        0.00000000    
   5.4792379963000483E-008  -19.642892430718167        0.00000000    
   5.5476867429057083E-008  -20.515168315308468        0.00000000    
   5.4650210318330569E-008  -21.281400424743019        0.00000000    
   5.1401210791530259E-008  -21.947464837198950        0.00000000    
   4.9615015084437577E-008  -22.519163515851211        0.00000000    
   4.3910151219338341E-008  -23.002032039971763        0.00000000    
   3.9539338900475885E-008  -23.401190402212098        0.00000000    
   3.3134965150905409E-008  -23.721186164518084        0.00000000    
   2.6059139563558115E-008  -23.965893654062690        0.00000000    
   2.2389393964384372E-008  -24.138412092189071        0.00000000    
   1.4440659210314394E-008  -24.241005666844220        0.00000000    
   0.0000000000000000       -24.275049170217937        0.00000000    
   0.0000000000000000        37.342527270221375        0.00000000    
  0.37787366395636252        37.151448913413120        0.00000000    
  0.75115819481322399        36.576061553078333        0.00000000    
   1.1152484082883702        35.609862981497265        0.00000000    
   1.4655042288338025        34.242037659929721        0.00000000    
   1.7972423262097716        32.457385922892698        0.00000000    
   2.1057174309957123        30.236375485147072        0.00000000    
   2.3861267394030730        27.555027505184754        0.00000000    
   2.6335910831974489        24.385018059415859        0.00000000    
   2.8431733431741208        20.693497291553079        0.00000000    
   3.0098619096353247        16.443276821490233        0.00000000    
   3.1285713985037891        11.592589988755469        0.00000000    
   3.1942200063805233        6.0952321715653826        0.00000000    
   3.2015246843213325       -9.9287319259313361E-002   0.00000000    
   3.1453121034674840       -7.0465074545962825        0.00000000    
   3.0202591331960766       -14.805598887878082        0.00000000    
   2.8579964942298051       -16.150885050751544        0.00000000    
   2.6922053477774752       -17.368813569142848        0.00000000    
   2.5214098575796733       -18.463578110585921        0.00000000    
   2.3445856550944404       -19.440357206830836        0.00000000    
   2.1610697557327461       -20.304792767997906        0.00000000    
   1.9705009562790976       -21.062996170994126        0.00000000    
   1.7728445616619650       -21.721142195304324        0.00000000    
   1.5683166014534478       -22.285298244178101        0.00000000    
   1.3573566286363414       -22.761237359495780        0.00000000    
   1.1405882644386924       -23.154256252921311        0.00000000    
  0.91878168811493699       -23.469055503668713        0.00000000    
  0.69282202761522471       -23.709615062358690        0.00000000    
  0.46367897478351833       -23.879118806249220        0.00000000    
  0.23238245333074251       -23.979881762671493        0.00000000    
   0.0000000000000000       -24.013312521382151        0.00000000    
   0.0000000000000000        36.066828289639275        0.00000000    
  0.75266824407616195        35.883428598355081        0.00000000    
   1.4962692109522424        35.331089503239916        0.00000000    
   2.2216942418273735        34.403425729072666        0.00000000    
   2.9197625162311769        33.089745696336131        0.00000000    
   3.5811791619561228        31.375079718954471        0.00000000    
   4.1965271093994216        29.240079819466629        0.00000000    
   4.7562286047016498        26.661073860603672        0.00000000    
   5.2505692561077311        23.609910468108897        0.00000000    
   5.6696619996246831        20.054086123559134        0.00000000    
   6.0034949226884544        15.956514636900556        0.00000000    
   6.2419353352139195        11.275764896788996        0.00000000    
   6.3746142118396598        5.9658204229274272        0.00000000    
   6.3913390020297332       -2.3941873998450328E-002   0.00000000    
   6.2814207715206178       -6.7480585750673114        0.00000000    
   6.0342517936772246       -14.266548383341599        0.00000000    
   5.7128374570450102       -15.601662359103177        0.00000000    
   5.3835234392243194       -16.804049643404909        0.00000000    
   5.0436252328467805       -17.879281217880301        0.00000000    
   4.6911057356544887       -18.833630774071025        0.00000000    
   4.3246607580782861       -19.674107230122278        0.00000000    
   3.9437427112326362       -20.407836303410487        0.00000000    
   3.5483518759121608       -21.041945794194000        0.00000000    
   3.1390240659589908       -21.583319165187000        0.00000000    
   2.7167259990396677       -22.038385847655110        0.00000000    
   2.2827731836245446       -22.412985109169131        0.00000000    
   1.8387567690576998       -22.712224920913243        0.00000000    
   1.3864741561076828       -22.940400528326233        0.00000000    
  0.92787482381914554       -23.100912972213713        0.00000000    
  0.46501109780123989       -23.196227043021686        0.00000000    
   0.0000000000000000       -23.227831749415866        0.00000000    
   0.0000000000000000        33.953069431323819        0.00000000    
   1.1206447560271176        33.782233202184763        0.00000000    
   2.2279844715535488        33.267668372295262        0.00000000    
   3.3086431376520316        32.403158537724252        0.00000000    
   4.3490964732521711        31.178339261224924        0.00000000    
   5.3356286223748093        29.578601373034846        0.00000000    
   6.2542638215511888        27.585096082000401        0.00000000    
   7.0907724842027493        25.174584739491653        0.00000000    
   7.8306152662372108        22.319486869491964        0.00000000    
   8.4590084321934764        18.987666423462063        0.00000000    
   8.9608834480896320        15.142591472413978        0.00000000    
   9.3209601898733059        10.743024466728828        0.00000000    
   9.5239140191974627        5.7433872637993133        0.00000000    
   9.5538300404067638        9.3549459329091630E-002   0.00000000    
   9.3953389123235898       -6.2616288528186619        0.00000000    
   9.0324897915106153       -13.380437382290863        0.00000000    
   8.5576659222598117       -14.696237395125614        0.00000000    
   8.0695571677539064       -15.870273373326027        0.00000000    
   7.5638291107706959       -16.910398393494869        0.00000000    
   7.0376595470338383       -17.825463209388829        0.00000000    
   6.4894741807144571       -18.624356525155260        0.00000000    